<?xml version="1.0" encoding="UTF-8"?>

<!-- generated on 2021-09-07 15:10:29 by Eclipse SUMO sumo Version v1_10_0+0551-f581c04ba63
<configuration xmlns:xsi="http://www.w3.org/2001/XMLSchema-instance" xsi:noNamespaceSchemaLocation="http://sumo.dlr.de/xsd/sumoConfiguration.xsd">

    <input>
        <net-file value="osm.net.xml"/>
        <route-files value="trips.trips.xml"/>
        <additional-files value="osm_stops.add.xml"/>
    </input>

    <output>
        <vehroute-output value="vehroutes.xml"/>
        <stop-output value="stopinfos.xml"/>
    </output>

    <time>
        <begin value="0"/>
    </time>

    <processing>
        <ignore-route-errors value="true"/>
    </processing>

    <routing>
        <device.rerouting.adaptation-interval value="0"/>
    </routing>

    <report>
        <aggregate-warnings value="5"/>
        <error-log value="trips.trips.xml.errorlog"/>
        <no-step-log value="true"/>
    </report>

</configuration>
-->

<routes xmlns:xsi="http://www.w3.org/2001/XMLSchema-instance" xsi:noNamespaceSchemaLocation="http://sumo.dlr.de/xsd/routes_file.xsd">
    <vehicle id="4_bus_172:1" type="pt_bus" depart="52.00" departLane="1" arrival="372.00">
        <route edges="145586617#0 145586617#1 145586617#2 145586617#3 145586617#4 145586617#5 145586617#6"/>
        <stop busStop="664609175" duration="30.00"/>
        <stop busStop="664609167" duration="30.00"/>
        <stop busStop="664609202" duration="30.00"/>
        <stop busStop="664609200" duration="30.00"/>
        <stop busStop="664609198" duration="30.00"/>
    </vehicle>

    <vehicle id="0_bus_160:0" type="pt_bus" depart="3.00" departLane="1" arrival="505.00">
        <route edges="141968799 141968830#1 141968830#2 141968810#0 141968810#1 141968844#2 141968844#3 141968844#4 141968823#0 141968823#1 141968853#0 141968853#1 141968853#2 46150483#0 46150483#1 206579057 206579058#1 46039050#1 46039050#4 46039050#7 143308587#1 24214694#3 24214694#4 24214694#5 190083618#0 -283317455#1 -143308570 -318210395 -190083616 46150481#0 46150481#1"/>
        <stop busStop="837697182" duration="30.00"/>
        <stop busStop="837696912" duration="30.00"/>
        <stop busStop="837696524" duration="30.00"/>
        <stop busStop="1560223236" duration="30.00"/>
        <stop busStop="852932398" duration="30.00"/>
    </vehicle>

    <vehicle id="6_bus_162:1" type="pt_bus" depart="58.00" departLane="2" arrival="533.00">
        <route edges="-46150481#1 -46150481#0 190083616 318210395 143308570 283317455#0 -190083618#1 -24214694#5 -24214694#4 -24214694#3 143308590#0 143308542#1 143308542#3 143308542#4 143308542#6 143308542#8 143308542#12 143308542#13 143308542#14 143308542#15 143308552#1 143308549#1 143308549#2 143308549#3 158236381 220194458#3 806903753"/>
        <stop busStop="-851572693" duration="30.00"/>
        <stop busStop="464396487" duration="30.00"/>
        <stop busStop="306982602" duration="30.00"/>
        <stop busStop="464396589" duration="30.00"/>
        <stop busStop="5315085711" duration="30.00"/>
    </vehicle>

    <vehicle id="13_tram_61:0" type="pt_tram" depart="201.00" departLane="0" arrival="538.00">
        <route edges="385981675#1 158236729#1 158236729#2 158236729#3 158236729#4 158236729#5 158236729#6 158236729#8 158236729#9 220198808#1 220198808#4 220198808#5 220198808#6 220198808#9 220198808#12 158236381 220194458#3 806903753"/>
        <stop busStop="1704693343" duration="30.00"/>
        <stop busStop="1704693389" duration="30.00"/>
        <stop busStop="1704693457" duration="30.00"/>
    </vehicle>

    <vehicle id="5_bus_162:0" type="pt_bus" depart="55.00" departLane="2" arrival="548.00">
        <route edges="206889086#1 541676219 318210389#0 670062912#1 81639675#1 81639675#2 81639675#3 81639675#4 670062909#1 670062908#1 670062907#1 670062907#2 670062907#4 677933664#4 143308546#0 143308546#1 143308546#3 143308546#7 143308546#8 670062902#2 143308587#1 24214694#3 24214694#4 24214694#5 190083618#0 -283317455#1 -143308570 -318210395 -190083616 46150481#0 46150481#1"/>
        <stop busStop="1656195133" duration="30.00"/>
        <stop busStop="464396566" duration="30.00"/>
        <stop busStop="301331956" duration="30.00"/>
        <stop busStop="1560223236" duration="30.00"/>
        <stop busStop="852932398" duration="30.00"/>
    </vehicle>

    <vehicle id="17_train_S45:0" type="pt_train" depart="303.00" departLane="0" arrival="549.00">
        <route edges="22917994"/>
        <stop busStop="3508654675" duration="30.00"/>
    </vehicle>

    <vehicle id="7_bus_163:0" type="pt_bus" depart="93.00" departLane="1" arrival="573.00">
        <route edges="144909690 375685718#0 375685718#1 382647882 12749623 81639678#0 81639678#1 48858191#1 318210383#0 52243916#1 -43660343#1 -43660343#0 10735918#0 204721579#2 204721579#4 204721579#6 153021549#0 153021549#1 153021549#2 153021549#3 153021549#4 153021549#5 40191606#0 40191606#2 40191606#3 414563781 206889086#1"/>
        <stop busStop="301263813" duration="30.00"/>
        <stop busStop="94487938" duration="30.00"/>
        <stop busStop="1383533462" duration="30.00"/>
        <stop busStop="1862990707" duration="30.00"/>
        <stop busStop="1656195133" duration="30.00"/>
    </vehicle>

    <vehicle id="18_train_S45:1" type="pt_train" depart="321.00" departLane="0" arrival="576.00">
        <route edges="431786563 846012128"/>
        <stop busStop="30499115" duration="30.00"/>
    </vehicle>

    <vehicle id="15_tram_63:0" type="pt_tram" depart="227.00" departLane="0" arrival="595.00">
        <route edges="385981675#1 158236729#1 158236729#2 158236729#3 158236729#4 158236729#5 158236729#6 158236729#8 158236729#9 220198808#1 220198808#4 220198808#5 220198808#6 220198808#9 220198808#12 158236381 220194458#3 806903753"/>
        <stop busStop="1704693343" duration="30.00"/>
        <stop busStop="1704693389" duration="30.00"/>
        <stop busStop="1704693457" duration="30.00"/>
    </vehicle>

    <vehicle id="23_train_S8:1" type="pt_train" depart="383.00" departLane="0" arrival="629.00">
        <route edges="22917994"/>
        <stop busStop="3508654675" duration="30.00"/>
    </vehicle>

    <vehicle id="22_train_S8:0" type="pt_train" depart="362.00" departLane="0" arrival="643.00">
        <route edges="431786563 846012128"/>
        <stop busStop="30499115" duration="30.00"/>
    </vehicle>

    <vehicle id="11_bus_260:0" type="pt_bus" depart="133.00" departLane="2" arrival="652.00">
        <route edges="206889086#1 541676219 318210389#0 670062912#1 81639675#1 81639675#2 81639675#3 81639675#4 -318210361#2 -318210361#0 -314415495#25 -314415495#22 -314415495#21 -314415495#19 -314415495#17 -314415495#16 -314415495#15 -314415495#14 -314415495#13 -314415495#12 -314415495#11 -314415495#10 -314415495#9 -314415495#8 -314415495#7 -314415495#6 -314415495#5 -314415495#4 -314415495#3 -314415495#1 -314415495#0 -81639685#2 48858192#1 318210388#0 -318210386#1 -81639678#0 -12749623 -318210387 -375685718#1 -375685718#0 -144909690"/>
        <stop busStop="1656195133" duration="30.00"/>
        <stop busStop="-385200818" duration="30.00"/>
        <stop busStop="-1560223790" duration="30.00"/>
        <stop busStop="-1560223555" duration="30.00"/>
        <stop busStop="-942861696" duration="30.00"/>
        <stop busStop="-94487924" duration="30.00"/>
    </vehicle>

    <vehicle id="14_tram_61:1" type="pt_tram" depart="204.00" departLane="0" arrival="673.00">
        <route edges="179699939#0 179699939#1 179699939#2 179699939#3 179699939#4 179699939#5 179699939#6 179699939#7 179699939#12 179699939#13 179699939#14 179699939#15 179699936 179699938#6 179699938#7 179699938#8 206889079#3 206889079#6 206889079#9 206889079#10 206889079#11 206889079#14 206889079#15 220198810#1 220198810#3 220198810#4 220198810#5 220198810#6 220198810#7 220198810#8 220198810#9"/>
        <stop busStop="1704693444" duration="30.00"/>
        <stop busStop="1704693451" duration="30.00"/>
        <stop busStop="1704693381" duration="30.00"/>
        <stop busStop="1704693369" duration="30.00"/>
    </vehicle>

    <vehicle id="8_bus_163:1" type="pt_bus" depart="119.00" departLane="1" arrival="690.00">
        <route edges="806903753 218797686#0 72230304#1 461514282#0 461514282#1 204721578#0 977639651#1 153021553 318210353 207086005 977639652 318210360#0 152839434#1 43660343#0 43660343#1 48298278#0 48858192#1 318210388#0 -318210386#1 -81639678#0 -12749623 -318210387 -375685718#1 -375685718#0 -144909690"/>
        <stop busStop="5315085711" duration="30.00"/>
        <stop busStop="3812676495" duration="30.00"/>
        <stop busStop="1383533461" duration="30.00"/>
        <stop busStop="-942861696" duration="30.00"/>
        <stop busStop="-94487924" duration="30.00"/>
    </vehicle>

    <vehicle id="25_train_S9:0" type="pt_train" depart="416.00" departLane="0" arrival="696.00">
        <route edges="22917994"/>
        <stop busStop="3508654675" duration="30.00"/>
    </vehicle>

    <vehicle id="26_train_S9:1" type="pt_train" depart="418.00" departLane="0" arrival="710.00">
        <route edges="431786563 846012128"/>
        <stop busStop="30499115" duration="30.00"/>
    </vehicle>

    <vehicle id="16_tram_63:1" type="pt_tram" depart="253.00" departLane="0" arrival="729.00">
        <route edges="179699939#0 179699939#1 179699939#2 179699939#3 179699939#4 179699939#5 179699939#6 179699939#7 179699939#12 179699939#13 179699939#14 179699939#15 179699936 179699938#6 179699938#7 179699938#8 206889079#3 206889079#6 206889079#9 206889079#10 206889079#11 206889079#14 206889079#15 220198810#1 220198810#3 220198810#4 220198810#5 220198810#6 220198810#7 220198810#8 220198810#9"/>
        <stop busStop="1704693444" duration="30.00"/>
        <stop busStop="1704693451" duration="30.00"/>
        <stop busStop="1704693381" duration="30.00"/>
        <stop busStop="1704693369" duration="30.00"/>
    </vehicle>

    <vehicle id="27_train_S46:0" type="pt_train" depart="449.00" departLane="0" arrival="763.00">
        <route edges="22917994"/>
        <stop busStop="3508654675" duration="30.00"/>
    </vehicle>

    <vehicle id="28_train_S46:1" type="pt_train" depart="451.00" departLane="0" arrival="777.00">
        <route edges="431786563 846012128"/>
        <stop busStop="30499115" duration="30.00"/>
    </vehicle>

    <vehicle id="21_bus_260:1" type="pt_bus" depart="353.00" departLane="1" arrival="814.00">
        <route edges="144909690 375685718#0 375685718#1 382647882 12749623 81639678#0 81639678#1 48858191#1 318210383#0 81639685#1 314415495#0 314415495#1 314415495#3 314415495#4 314415495#5 314415495#6 314415495#7 314415495#8 314415495#9 314415495#10 314415495#11 314415495#12 314415495#13 314415495#14 314415495#15 314415495#16 314415495#17 314415495#19 314415495#21 314415495#22 314415495#25 318210361#0 318210361#1 143308549#1 143308549#2 143308549#3 158236381 220194458#3 806903753"/>
        <stop busStop="301263813" duration="30.00"/>
        <stop busStop="94487938" duration="30.00"/>
        <stop busStop="945142241" duration="30.00"/>
        <stop busStop="664208807" duration="30.00"/>
        <stop busStop="385200819" duration="30.00"/>
        <stop busStop="5315085711" duration="30.00"/>
    </vehicle>

    <vehicle id="29_train_S85:0" type="pt_train" depart="496.00" departLane="0" arrival="830.00">
        <route edges="22917994"/>
        <stop busStop="3508654675" duration="30.00"/>
    </vehicle>

    <vehicle id="30_train_S85:1" type="pt_train" depart="484.00" departLane="0" arrival="844.00">
        <route edges="431786563 846012128"/>
        <stop busStop="30499115" duration="30.00"/>
    </vehicle>

    <vehicle id="9_bus_163:2" type="pt_bus" depart="131.00" departLane="2" arrival="894.00">
        <route edges="70130339#0 70130339#1 70130339#2 70130339#3 70130339#4 118262353#2 -38915290#2 -38915290#1 -318210378#1 -318210378#0 -887919960#5 -887919960#4 -887919960#0 -318210377#0 -31050360#2 143308552#1 143308549#1 143308549#2 143308549#3 158236381 220194458#3 806903753 218797686#0 72230304#1 461514282#0 461514282#1 204721578#0 977639651#1 153021553 318210353 207086005 977639652 318210360#0 152839434#1 43660343#0 43660343#1 48298278#0 48858192#1 318210388#0 -318210386#1 -81639678#0 -12749623 -318210387 -375685718#1 -375685718#0 -144909690"/>
        <stop busStop="2050022025" duration="30.00"/>
        <stop busStop="-945142208" duration="30.00"/>
        <stop busStop="5315085711" duration="30.00"/>
        <stop busStop="3812676495" duration="30.00"/>
        <stop busStop="1383533461" duration="30.00"/>
        <stop busStop="-942861696" duration="30.00"/>
        <stop busStop="-94487924" duration="30.00"/>
    </vehicle>

    <vehicle id="12_bus_164:0" type="pt_bus" depart="165.00" departLane="1" arrival="930.00">
        <route edges="-23913524#4 -23913524#3 -23913524#2 -23913524#1 -23913524#0 137534616#0 137534616#1 137534616#2 137534616#3 137534616#4 166142951#0 166142951#1 149611526#0 149611526#1 40191606#0 40191606#2 40191606#3 414563781 206889086#1 541676219 318210389#0 670062912#1 81639675#1 81639675#2 81639675#3 81639675#4 670062909#1 670062908#1 670062907#1 670062907#2 670062907#4 677933664#4 143308546#0 143308546#1 143308546#3 143308546#7 143308546#8 670062902#2 143308587#1 24214694#3 24214694#4 24214694#5 190083618#0 -283317455#1 -143308570 -318210395 -190083616 46150481#0 46150481#1"/>
        <stop busStop="-1383533494" duration="30.00"/>
        <stop busStop="1383533577" duration="30.00"/>
        <stop busStop="1383533575" duration="30.00"/>
        <stop busStop="1656195133" duration="30.00"/>
        <stop busStop="464396566" duration="30.00"/>
        <stop busStop="301331956" duration="30.00"/>
        <stop busStop="1560223236" duration="30.00"/>
        <stop busStop="852932398" duration="30.00"/>
    </vehicle>

    <vehicle id="24_bus_164:1" type="pt_bus" depart="389.00" departLane="2" arrival="1120.00">
        <route edges="-46150481#1 -46150481#0 190083616 318210395 143308570 283317455#0 -190083618#1 -24214694#5 -24214694#4 -24214694#3 143308590#0 143308542#1 143308542#3 143308542#4 143308542#6 143308542#8 143308542#12 143308542#13 143308542#14 143308542#15 143308552#1 143308549#1 143308549#2 143308549#3 158236381 220194458#3 806903753 218797686#0 -679901152#1 -45875465 152839428 24152326#0 24152326#1 23925124#0 23925124#1 23925124#2 -166142951#1 -166142951#0 -137534616#4 -137534616#3 -137534616#2 -137534616#1 -137534616#0 23913524#0 23913524#1 23913524#2 23913524#3 23913524#4"/>
        <stop busStop="-851572693" duration="30.00"/>
        <stop busStop="464396487" duration="30.00"/>
        <stop busStop="306982602" duration="30.00"/>
        <stop busStop="464396589" duration="30.00"/>
        <stop busStop="5315085711" duration="30.00"/>
        <stop busStop="1383533459" duration="30.00"/>
        <stop busStop="-1383533578" duration="30.00"/>
        <stop busStop="1383533492" duration="30.00"/>
    </vehicle>

    <vehicle id="32_bus_160:1" type="pt_bus" depart="508.00" departLane="1" arrival="1167.00">
        <route edges="81096611#0 81096611#1 81096611#2 169076556#0 169076556#1 169076556#2 169076556#3 190083616 318210395 143308570 283317455#0 -190083618#1 -24214694#5 -24214694#4 -24214694#3 143308590#0 143308532#1 143308532#4 143308532#7 46039051#1 -141968853#2 -141968853#1 -141968853#0 141968814#0 141968814#1 141968844#6 141968844#7 141968844#8 141968807#0 141968807#1 -141968830#2 -141968830#1 -141968830#0"/>
        <stop busStop="1568240825" duration="30.00"/>
        <stop busStop="851572829" duration="30.00"/>
        <stop busStop="301292770" duration="30.00"/>
        <stop busStop="671564316" duration="30.00"/>
        <stop busStop="837696418" duration="30.00"/>
        <stop busStop="-1553912606" duration="30.00"/>
        <stop busStop="-1094134880" duration="30.00"/>
    </vehicle>

    <vehicle id="31_bus_163:3" type="pt_bus" depart="485.00" departLane="1" arrival="1186.00">
        <route edges="144909690 375685718#0 375685718#1 382647882 12749623 81639678#0 81639678#1 48858191#1 318210383#0 52243916#1 -43660343#1 -43660343#0 10735918#0 204721579#2 204721579#4 204721579#6 153021549#0 153021549#1 153021549#2 153021549#3 153021549#4 153021549#5 40191606#0 40191606#2 40191606#3 414563781 206889086#1 541676219 318210389#0 670062912#1 81639675#1 81639675#2 81639675#3 81639675#4 670062909#1 670062908#1 31050360#1 318210377#0 318210377#1 887919960#4 887919960#5 318210378#0 318210378#1 38915290#1 38915290#2 8025704#0 231626692#0 231626692#1"/>
        <stop busStop="301263813" duration="30.00"/>
        <stop busStop="94487938" duration="30.00"/>
        <stop busStop="1383533462" duration="30.00"/>
        <stop busStop="1862990707" duration="30.00"/>
        <stop busStop="1656195133" duration="30.00"/>
        <stop busStop="945142098" duration="30.00"/>
        <stop busStop="2050022029" duration="30.00"/>
    </vehicle>

    <vehicle id="35_bus_162:3" type="pt_bus" depart="583.00" departLane="2" arrival="1244.00">
        <route edges="-46150481#1 -46150481#0 190083616 318210395 143308570 283317455#0 -190083618#1 -24214694#5 -24214694#4 -24214694#3 143308590#0 143308542#1 143308542#3 143308542#4 143308542#6 143308542#8 143308542#12 143308542#13 143308542#14 143308542#15 143308552#1 143308549#1 143308549#2 143308549#3 158236381 220194458#3 806903753 218797686#0 -679901152#1 -45875465 152839428 24152326#0 24152326#1 23925124#0 23925124#1 23925124#2 -166142951#1 -166142951#0 -137534616#4 -137534616#3 -137534616#2 -137534616#1 -137534616#0 23913524#0 23913524#1 23913524#2 23913524#3 23913524#4"/>
        <stop busStop="-851572693" duration="30.00"/>
        <stop busStop="464396487" duration="30.00"/>
        <stop busStop="306982602" duration="30.00"/>
        <stop busStop="464396589" duration="30.00"/>
        <stop busStop="5315085711" duration="30.00"/>
        <stop busStop="1383533459" duration="30.00"/>
        <stop busStop="-1383533578" duration="30.00"/>
        <stop busStop="1383533492" duration="30.00"/>
    </vehicle>

    <vehicle id="3_bus_172:0" type="pt_bus" depart="17.00" departLane="1" arrival="1281.00">
        <route edges="145586617#0 145586617#1 145586617#2 145586617#3 145586617#4 145586617#5 145586617#6 -145586617#9 -145586617#5 -145586617#4 -145586617#3 145586617#3 145586617#4 145586617#5 145586617#6 -145586617#9 -145586617#5 -145586617#4 -145586617#3 145586617#3 145586617#4 145586617#5 145586617#6 -145586617#9 -145586617#5 -145586617#4 -145586617#3 145586617#3 145586617#4 145586617#5 145586617#6 -145586617#9 -145586617#5 -145586617#4 -145586617#3 -145586617#2 -145586617#1 -145586617#0 -212452093#3 -212452093#2 -212452093#1 -212452093#0 212452093#0 212452093#1 212452093#2 212452093#3 145586617#0 145586617#1 145586617#2 145586617#3 145586617#4 145586617#5 145586617#6"/>
        <stop busStop="664609197" duration="30.00"/>
        <stop busStop="664609199" duration="30.00"/>
        <stop busStop="664609203" duration="30.00"/>
        <stop busStop="664609166" duration="30.00"/>
        <stop busStop="664609173" duration="30.00"/>
    </vehicle>

    <vehicle id="34_bus_162:2" type="pt_bus" depart="574.00" departLane="1" arrival="1307.00">
        <route edges="-23913524#4 -23913524#3 -23913524#2 -23913524#1 -23913524#0 137534616#0 137534616#1 137534616#2 137534616#3 137534616#4 166142951#0 166142951#1 149611526#0 149611526#1 40191606#0 40191606#2 40191606#3 414563781 206889086#1 541676219 318210389#0 670062912#1 81639675#1 81639675#2 81639675#3 81639675#4 670062909#1 670062908#1 670062907#1 670062907#2 670062907#4 677933664#4 143308546#0 143308546#1 143308546#3 143308546#7 143308546#8 670062902#2 143308587#1 24214694#3 24214694#4 24214694#5 190083618#0 -283317455#1 -143308570 -318210395 -190083616 46150481#0 46150481#1"/>
        <stop busStop="-1383533494" duration="30.00"/>
        <stop busStop="1383533577" duration="30.00"/>
        <stop busStop="1383533575" duration="30.00"/>
        <stop busStop="1656195133" duration="30.00"/>
        <stop busStop="464396566" duration="30.00"/>
        <stop busStop="301331956" duration="30.00"/>
        <stop busStop="1560223236" duration="30.00"/>
        <stop busStop="852932398" duration="30.00"/>
    </vehicle>

</routes>
