<?xml version="1.0" encoding="UTF-8"?>

<!-- generated on 2023-06-19 16:19:13 by Eclipse SUMO sumo Version 1.17.0
<configuration xmlns:xsi="http://www.w3.org/2001/XMLSchema-instance" xsi:noNamespaceSchemaLocation="http://sumo.dlr.de/xsd/sumoConfiguration.xsd">

    <input>
        <net-file value="data/net.net.xml"/>
        <route-files value="data/demand.rou.xml"/>
        <additional-files value="data/add.add.xml"/>
    </input>

    <output>
        <tripinfo-output value="data/tripinfo.xml"/>
    </output>

    <processing>
        <time-to-teleport value="0"/>
    </processing>

    <report>
        <no-step-log value="True"/>
    </report>

    <taxi_device>
        <device.taxi.dispatch-algorithm value="traci"/>
        <device.taxi.idle-algorithm value="randomCircling"/>
    </taxi_device>

    <traci_server>
        <remote-port value="12584"/>
    </traci_server>

</configuration>
-->

<tripinfos xmlns:xsi="http://www.w3.org/2001/XMLSchema-instance" xsi:noNamespaceSchemaLocation="http://sumo.dlr.de/xsd/tripinfo_file.xsd">
    <tripinfo id="vehicle_0" depart="0.00" departLane="-gneE2_0" departPos="5.10" departSpeed="0.00" departDelay="0.00" arrival="86.00" arrivalLane="-gneE2_0" arrivalPos="254.43" arrivalSpeed="14.01" duration="86.00" routeLength="1039.81" waitingTime="0.00" waitingCount="0" stopTime="0.00" timeLoss="13.48" rerouteNo="0" devices="tripinfo_vehicle_0" vType="DEFAULT_VEHTYPE" speedFactor="1.06" vaporized=""/>
    <tripinfo id="vehicle_1" depart="3.00" departLane="-gneE2_0" departPos="5.10" departSpeed="0.00" departDelay="3.00" arrival="98.00" arrivalLane="-gneE2_0" arrivalPos="254.43" arrivalSpeed="11.91" duration="95.00" routeLength="1039.81" waitingTime="0.00" waitingCount="0" stopTime="0.00" timeLoss="13.36" rerouteNo="0" devices="tripinfo_vehicle_1" vType="DEFAULT_VEHTYPE" speedFactor="0.94" vaporized=""/>
    <tripinfo id="vehicle_3" depart="130.00" departLane="-gneE2_0" departPos="5.10" departSpeed="0.00" departDelay="0.00" arrival="230.00" arrivalLane="-gneE2_0" arrivalPos="254.43" arrivalSpeed="11.28" duration="100.00" routeLength="1039.81" waitingTime="0.00" waitingCount="0" stopTime="0.00" timeLoss="12.71" rerouteNo="0" devices="tripinfo_vehicle_3" vType="DEFAULT_VEHTYPE" speedFactor="0.89" vaporized=""/>
    <tripinfo id="vehicle_4" depart="134.00" departLane="-gneE2_0" departPos="5.10" departSpeed="0.00" departDelay="0.00" arrival="234.00" arrivalLane="-gneE2_0" arrivalPos="254.43" arrivalSpeed="12.63" duration="100.00" routeLength="1039.81" waitingTime="0.00" waitingCount="0" stopTime="0.00" timeLoss="17.39" rerouteNo="0" devices="tripinfo_vehicle_4" vType="DEFAULT_VEHTYPE" speedFactor="0.94" vaporized=""/>
    <personinfo id="HeadingBusstop3" depart="3.00" type="DEFAULT_PEDTYPE" speedFactor="1.03">
        <walk depart="3.00" departPos="0.00" arrival="147.00" arrivalPos="55.00" duration="144.00" routeLength="182.59" timeLoss="16.40" maxSpeed="1.43"/>
        <ride waitingTime="67.00" vehicle="taxiV10" depart="214.00" arrival="301.00" arrivalPos="126.71" duration="87.00" routeLength="180.09" timeLoss="15.29"/>
    </personinfo>
    <personinfo id="HeadingBusstop1" depart="0.00" type="DEFAULT_PEDTYPE" speedFactor="1.01">
        <walk depart="0.00" departPos="0.00" arrival="145.00" arrivalPos="55.00" duration="145.00" routeLength="182.59" timeLoss="14.89" maxSpeed="1.40"/>
        <ride waitingTime="54.00" vehicle="taxiV0" depart="199.00" arrival="302.00" arrivalPos="254.43" duration="103.00" routeLength="442.35" timeLoss="12.74"/>
    </personinfo>
    <personinfo id="HeadingBusstop5" depart="5.00" type="DEFAULT_PEDTYPE" speedFactor="1.05">
        <walk depart="5.00" departPos="0.00" arrival="149.00" arrivalPos="55.00" duration="144.00" routeLength="182.59" timeLoss="18.29" maxSpeed="1.45"/>
        <ride waitingTime="68.00" vehicle="taxiV15" depart="217.00" arrival="330.00" arrivalPos="254.43" duration="113.00" routeLength="444.75" timeLoss="21.65"/>
    </personinfo>
    <personinfo id="HeadingBusstop2" depart="1.00" type="DEFAULT_PEDTYPE" speedFactor="1.08">
        <walk depart="1.00" departPos="0.00" arrival="146.00" arrivalPos="55.00" duration="145.00" routeLength="182.59" timeLoss="23.58" maxSpeed="1.50"/>
        <ride waitingTime="60.00" vehicle="taxiV5" depart="206.00" arrival="337.00" arrivalPos="254.43" duration="131.00" routeLength="702.25" timeLoss="19.28"/>
    </personinfo>
</tripinfos>
