<?xml version="1.0" encoding="UTF-8"?>

<!-- generated on 10.05.2019 09:18:42 by Eclipse SUMO GUI Version v1_2_0+0280-89bb845180c
<configuration xmlns:xsi="http://www.w3.org/2001/XMLSchema-instance" xsi:noNamespaceSchemaLocation="http://sumo.dlr.de/xsd/sumoConfiguration.xsd">

    <input>
        <net-file value="D:\erdm_ja\sip-svn-trunk\papers\DLR\SUMO_Conference2019\tutorial\5_parking.final\osm.net.xml"/>
        <route-files value="D:\erdm_ja\sip-svn-trunk\papers\DLR\SUMO_Conference2019\tutorial\5_parking.final\osm_pt.rou.xml,D:\erdm_ja\sip-svn-trunk\papers\DLR\SUMO_Conference2019\tutorial\5_parking.final\osm.passenger.trips.xml,D:\erdm_ja\sip-svn-trunk\papers\DLR\SUMO_Conference2019\tutorial\5_parking.final\osm.pedestrian.rou.xml,D:\erdm_ja\sip-svn-trunk\papers\DLR\SUMO_Conference2019\tutorial\5_parking.final\custom.rou.xml"/>
        <additional-files value="D:\erdm_ja\sip-svn-trunk\papers\DLR\SUMO_Conference2019\tutorial\5_parking.final\osm.poly.xml,D:\erdm_ja\sip-svn-trunk\papers\DLR\SUMO_Conference2019\tutorial\5_parking.final\osm_stops.add.xml,D:\erdm_ja\sip-svn-trunk\papers\DLR\SUMO_Conference2019\tutorial\5_parking.final\edgedata.add.xml,D:\erdm_ja\sip-svn-trunk\papers\DLR\SUMO_Conference2019\tutorial\5_parking.final\parking.add.xml,D:\erdm_ja\sip-svn-trunk\papers\DLR\SUMO_Conference2019\tutorial\5_parking.final\rerouter.add.xml"/>
    </input>

    <processing>
        <ignore-route-errors value="true"/>
    </processing>

    <routing>
        <device.rerouting.adaptation-steps value="180"/>
    </routing>

    <report>
        <verbose value="true"/>
        <duration-log.statistics value="true"/>
        <no-step-log value="true"/>
    </report>

    <gui_only>
        <gui-settings-file value="D:\erdm_ja\sip-svn-trunk\papers\DLR\SUMO_Conference2019\tutorial\5_parking.final\osm.view.xml"/>
    </gui_only>

</configuration>
-->

<meandata xmlns:xsi="http://www.w3.org/2001/XMLSchema-instance" xsi:noNamespaceSchemaLocation="http://sumo.dlr.de/xsd/meandata_file.xsd">
    <interval begin="0.00" end="491.00" id="vehData">
        <edge id="-114024899" sampledSeconds="0.00" departed="0" arrived="0" entered="0" left="0" laneChangedFrom="0" laneChangedTo="0"/>
        <edge id="-114024901" sampledSeconds="0.00" departed="0" arrived="0" entered="0" left="0" laneChangedFrom="0" laneChangedTo="0"/>
        <edge id="-114024903#0" sampledSeconds="0.00" departed="0" arrived="0" entered="0" left="0" laneChangedFrom="0" laneChangedTo="0"/>
        <edge id="-114024903#1" sampledSeconds="0.00" departed="0" arrived="0" entered="0" left="0" laneChangedFrom="0" laneChangedTo="0"/>
        <edge id="-114024903#2" sampledSeconds="0.00" departed="0" arrived="0" entered="0" left="0" laneChangedFrom="0" laneChangedTo="0"/>
        <edge id="-114024903#3" sampledSeconds="0.00" departed="0" arrived="0" entered="0" left="0" laneChangedFrom="0" laneChangedTo="0"/>
        <edge id="-114024903#4" sampledSeconds="0.00" departed="0" arrived="0" entered="0" left="0" laneChangedFrom="0" laneChangedTo="0"/>
        <edge id="-114024903#5" sampledSeconds="0.00" departed="0" arrived="0" entered="0" left="0" laneChangedFrom="0" laneChangedTo="0"/>
        <edge id="-114024903#6" sampledSeconds="0.00" departed="0" arrived="0" entered="0" left="0" laneChangedFrom="0" laneChangedTo="0"/>
        <edge id="-114024904" sampledSeconds="0.00" departed="0" arrived="0" entered="0" left="0" laneChangedFrom="0" laneChangedTo="0"/>
        <edge id="-114024905" sampledSeconds="0.00" departed="0" arrived="0" entered="0" left="0" laneChangedFrom="0" laneChangedTo="0"/>
        <edge id="-114024906" sampledSeconds="0.00" departed="0" arrived="0" entered="0" left="0" laneChangedFrom="0" laneChangedTo="0"/>
        <edge id="-114207225" sampledSeconds="0.00" departed="0" arrived="0" entered="0" left="0" laneChangedFrom="0" laneChangedTo="0"/>
        <edge id="-114207227" sampledSeconds="0.00" departed="0" arrived="0" entered="0" left="0" laneChangedFrom="0" laneChangedTo="0"/>
        <edge id="-114207229" sampledSeconds="0.00" departed="0" arrived="0" entered="0" left="0" laneChangedFrom="0" laneChangedTo="0"/>
        <edge id="-114207232#0" sampledSeconds="0.00" departed="0" arrived="0" entered="0" left="0" laneChangedFrom="0" laneChangedTo="0"/>
        <edge id="-114692703#0" sampledSeconds="0.00" departed="0" arrived="0" entered="0" left="0" laneChangedFrom="0" laneChangedTo="0"/>
        <edge id="-114949101#0" sampledSeconds="0.00" departed="0" arrived="0" entered="0" left="0" laneChangedFrom="0" laneChangedTo="0"/>
        <edge id="-114952399#0" sampledSeconds="0.00" departed="0" arrived="0" entered="0" left="0" laneChangedFrom="0" laneChangedTo="0"/>
        <edge id="-114952399#1" sampledSeconds="0.00" departed="0" arrived="0" entered="0" left="0" laneChangedFrom="0" laneChangedTo="0"/>
        <edge id="-115227681" sampledSeconds="0.00" departed="0" arrived="0" entered="0" left="0" laneChangedFrom="0" laneChangedTo="0"/>
        <edge id="-115227682#0" sampledSeconds="0.00" departed="0" arrived="0" entered="0" left="0" laneChangedFrom="0" laneChangedTo="0"/>
        <edge id="-115227682#1" sampledSeconds="0.00" departed="0" arrived="0" entered="0" left="0" laneChangedFrom="0" laneChangedTo="0"/>
        <edge id="-115466410#0" sampledSeconds="0.00" departed="0" arrived="0" entered="0" left="0" laneChangedFrom="0" laneChangedTo="0"/>
        <edge id="-115466410#1" sampledSeconds="0.00" departed="0" arrived="0" entered="0" left="0" laneChangedFrom="0" laneChangedTo="0"/>
        <edge id="-116342915" sampledSeconds="0.00" departed="0" arrived="0" entered="0" left="0" laneChangedFrom="0" laneChangedTo="0"/>
        <edge id="-116391654#1" sampledSeconds="0.00" departed="0" arrived="0" entered="0" left="0" laneChangedFrom="0" laneChangedTo="0"/>
        <edge id="-122666828#0" sampledSeconds="0.00" departed="0" arrived="0" entered="0" left="0" laneChangedFrom="0" laneChangedTo="0"/>
        <edge id="-122666828#1" sampledSeconds="0.00" departed="0" arrived="0" entered="0" left="0" laneChangedFrom="0" laneChangedTo="0"/>
        <edge id="-122666828#2" sampledSeconds="0.00" departed="0" arrived="0" entered="0" left="0" laneChangedFrom="0" laneChangedTo="0"/>
        <edge id="-122868966" sampledSeconds="0.00" departed="0" arrived="0" entered="0" left="0" laneChangedFrom="0" laneChangedTo="0"/>
        <edge id="-125399001#0" sampledSeconds="0.00" departed="0" arrived="0" entered="0" left="0" laneChangedFrom="0" laneChangedTo="0"/>
        <edge id="-125399001#1" sampledSeconds="0.00" departed="0" arrived="0" entered="0" left="0" laneChangedFrom="0" laneChangedTo="0"/>
        <edge id="-125399001#2" sampledSeconds="0.00" departed="0" arrived="0" entered="0" left="0" laneChangedFrom="0" laneChangedTo="0"/>
        <edge id="-125399001#3" sampledSeconds="0.00" departed="0" arrived="0" entered="0" left="0" laneChangedFrom="0" laneChangedTo="0"/>
        <edge id="-125399002#0" sampledSeconds="0.00" departed="0" arrived="0" entered="0" left="0" laneChangedFrom="0" laneChangedTo="0"/>
        <edge id="-125399002#1" sampledSeconds="0.00" departed="0" arrived="0" entered="0" left="0" laneChangedFrom="0" laneChangedTo="0"/>
        <edge id="-128643749" sampledSeconds="0.00" departed="0" arrived="0" entered="0" left="0" laneChangedFrom="0" laneChangedTo="0"/>
        <edge id="-133858189" sampledSeconds="0.00" departed="0" arrived="0" entered="0" left="0" laneChangedFrom="0" laneChangedTo="0"/>
        <edge id="-133858466" sampledSeconds="0.00" departed="0" arrived="0" entered="0" left="0" laneChangedFrom="0" laneChangedTo="0"/>
        <edge id="-133858467#0" sampledSeconds="0.00" departed="0" arrived="0" entered="0" left="0" laneChangedFrom="0" laneChangedTo="0"/>
        <edge id="-133858467#1" sampledSeconds="0.00" departed="0" arrived="0" entered="0" left="0" laneChangedFrom="0" laneChangedTo="0"/>
        <edge id="-133858467#2" sampledSeconds="0.00" departed="0" arrived="0" entered="0" left="0" laneChangedFrom="0" laneChangedTo="0"/>
        <edge id="-137482783#0" sampledSeconds="0.00" departed="0" arrived="0" entered="0" left="0" laneChangedFrom="0" laneChangedTo="0"/>
        <edge id="-137482783#1" sampledSeconds="0.00" departed="0" arrived="0" entered="0" left="0" laneChangedFrom="0" laneChangedTo="0"/>
        <edge id="-137483014#0" sampledSeconds="9.72" traveltime="9.88" overlapTraveltime="10.20" density="0.19" occupancy="0.05" waitingTime="0.00" speed="10.47" departed="1" arrived="0" entered="0" left="1" laneChangedFrom="0" laneChangedTo="0"/>
        <edge id="-137483015#0" sampledSeconds="25.46" traveltime="7.95" overlapTraveltime="8.66" density="0.66" occupancy="0.16" waitingTime="0.00" speed="9.62" departed="1" arrived="0" entered="2" left="3" laneChangedFrom="0" laneChangedTo="0"/>
        <edge id="-137483015#2" sampledSeconds="2.06" traveltime="0.60" overlapTraveltime="1.03" density="0.73" occupancy="0.10" waitingTime="0.00" speed="10.46" departed="0" arrived="0" entered="2" left="2" laneChangedFrom="0" laneChangedTo="0"/>
        <edge id="-137483015#3" sampledSeconds="4.24" traveltime="1.94" overlapTraveltime="2.52" density="0.79" occupancy="0.16" waitingTime="0.00" speed="6.28" departed="1" arrived="0" entered="1" left="2" laneChangedFrom="0" laneChangedTo="0"/>
        <edge id="-137534616#0" sampledSeconds="0.00" departed="0" arrived="0" entered="0" left="0" laneChangedFrom="0" laneChangedTo="0"/>
        <edge id="-137534616#1" sampledSeconds="0.00" departed="0" arrived="0" entered="0" left="0" laneChangedFrom="0" laneChangedTo="0"/>
        <edge id="-137534616#2" sampledSeconds="22.36" traveltime="6.21" overlapTraveltime="7.45" density="0.62" occupancy="0.14" waitingTime="0.00" speed="10.45" departed="0" arrived="0" entered="3" left="3" laneChangedFrom="0" laneChangedTo="0"/>
        <edge id="-137534616#3" sampledSeconds="8.36" traveltime="2.43" overlapTraveltime="2.79" density="0.51" occupancy="0.11" waitingTime="0.00" speed="13.87" departed="0" arrived="0" entered="3" left="3" laneChangedFrom="0" laneChangedTo="0"/>
        <edge id="-137534616#4" sampledSeconds="6.43" traveltime="1.30" overlapTraveltime="1.66" density="0.70" occupancy="0.14" waitingTime="0.00" speed="14.29" departed="0" arrived="1" entered="4" left="3" laneChangedFrom="0" laneChangedTo="0"/>
        <edge id="-138628388" sampledSeconds="0.00" departed="0" arrived="0" entered="0" left="0" laneChangedFrom="0" laneChangedTo="0"/>
        <edge id="-140964924#0" sampledSeconds="0.97" traveltime="0.24" overlapTraveltime="0.97" density="1.29" occupancy="0.08" waitingTime="0.00" speed="6.71" departed="0" arrived="0" entered="1" left="1" laneChangedFrom="0" laneChangedTo="0"/>
        <edge id="-140964924#1" sampledSeconds="32.18" traveltime="31.92" overlapTraveltime="32.92" density="0.29" occupancy="0.07" waitingTime="0.00" speed="6.91" departed="1" arrived="0" entered="0" left="1" laneChangedFrom="0" laneChangedTo="0"/>
        <edge id="-142575655#0" sampledSeconds="65.30" traveltime="5.06" overlapTraveltime="5.94" density="2.97" occupancy="0.67" waitingTime="3.00" speed="8.38" departed="0" arrived="0" entered="11" left="11" laneChangedFrom="0" laneChangedTo="0"/>
        <edge id="-142575655#1" sampledSeconds="40.47" traveltime="3.31" overlapTraveltime="3.68" density="1.90" occupancy="0.42" waitingTime="0.00" speed="13.17" departed="0" arrived="0" entered="11" left="11" laneChangedFrom="0" laneChangedTo="0"/>
        <edge id="-142575655#4" sampledSeconds="50.49" traveltime="4.64" overlapTraveltime="5.05" density="1.66" occupancy="0.38" waitingTime="0.00" speed="13.26" departed="0" arrived="0" entered="10" left="10" laneChangedFrom="0" laneChangedTo="0"/>
        <edge id="-142575655#5" sampledSeconds="16.49" traveltime="1.28" overlapTraveltime="1.65" density="1.98" occupancy="0.38" waitingTime="0.00" speed="13.34" departed="0" arrived="0" entered="10" left="10" laneChangedFrom="0" laneChangedTo="0"/>
        <edge id="-142575655#6" sampledSeconds="20.75" traveltime="1.68" overlapTraveltime="2.08" density="2.20" occupancy="0.43" waitingTime="0.00" speed="11.66" departed="0" arrived="0" entered="10" left="10" laneChangedFrom="0" laneChangedTo="0"/>
        <edge id="-142575655#7" sampledSeconds="63.71" traveltime="6.65" overlapTraveltime="7.13" density="1.64" occupancy="0.38" waitingTime="0.00" speed="11.79" departed="1" arrived="0" entered="8" left="9" laneChangedFrom="0" laneChangedTo="0"/>
        <edge id="-142575655#8" sampledSeconds="13.58" traveltime="1.57" overlapTraveltime="1.94" density="1.31" occupancy="0.26" waitingTime="0.00" speed="13.45" departed="0" arrived="0" entered="7" left="7" laneChangedFrom="0" laneChangedTo="0"/>
        <edge id="-142575655#9" sampledSeconds="27.65" traveltime="3.58" overlapTraveltime="3.95" density="1.33" occupancy="0.29" waitingTime="0.00" speed="12.01" departed="0" arrived="0" entered="7" left="7" laneChangedFrom="0" laneChangedTo="0"/>
        <edge id="-142575656#0" sampledSeconds="19.68" traveltime="5.84" overlapTraveltime="6.56" density="0.71" occupancy="0.16" waitingTime="0.00" speed="9.33" departed="0" arrived="0" entered="3" left="3" laneChangedFrom="0" laneChangedTo="0"/>
        <edge id="-142575656#1" sampledSeconds="4.18" traveltime="0.63" overlapTraveltime="1.67" density="1.73" occupancy="0.23" waitingTime="0.00" speed="5.93" departed="1" arrived="0" entered="2" left="3" laneChangedFrom="0" laneChangedTo="0"/>
        <edge id="-142575656#10" sampledSeconds="27.98" traveltime="1.74" overlapTraveltime="2.19" density="3.57" occupancy="0.69" waitingTime="0.00" speed="9.55" departed="1" arrived="0" entered="12" left="13" laneChangedFrom="0" laneChangedTo="0"/>
        <edge id="-142575656#11" sampledSeconds="28.75" traveltime="2.24" overlapTraveltime="2.87" density="2.68" occupancy="0.53" waitingTime="0.00" speed="9.35" departed="0" arrived="0" entered="10" left="10" laneChangedFrom="0" laneChangedTo="0"/>
        <edge id="-142575656#12" sampledSeconds="15.59" traveltime="1.32" overlapTraveltime="1.79" density="2.57" occupancy="0.47" waitingTime="0.00" speed="9.70" departed="1" arrived="0" entered="8" left="9" laneChangedFrom="0" laneChangedTo="0"/>
        <edge id="-142575656#14" sampledSeconds="19.21" traveltime="2.80" overlapTraveltime="3.20" density="1.11" occupancy="0.24" waitingTime="0.00" speed="12.61" departed="0" arrived="0" entered="6" left="6" laneChangedFrom="0" laneChangedTo="0"/>
        <edge id="-142575656#15" sampledSeconds="16.26" traveltime="2.31" overlapTraveltime="2.71" density="1.21" occupancy="0.26" waitingTime="0.00" speed="11.90" departed="0" arrived="0" entered="6" left="6" laneChangedFrom="0" laneChangedTo="0"/>
        <edge id="-142575656#3" sampledSeconds="3.46" traveltime="3.12" overlapTraveltime="3.46" density="0.15" occupancy="0.03" waitingTime="0.00" speed="14.69" departed="0" arrived="0" entered="1" left="1" laneChangedFrom="0" laneChangedTo="0"/>
        <edge id="-142575656#4" sampledSeconds="0.89" traveltime="0.54" overlapTraveltime="0.89" density="0.23" occupancy="0.04" waitingTime="0.00" speed="14.39" departed="0" arrived="0" entered="1" left="1" laneChangedFrom="0" laneChangedTo="0"/>
        <edge id="-142575656#5" sampledSeconds="1.28" traveltime="0.94" overlapTraveltime="1.28" density="0.18" occupancy="0.03" waitingTime="0.00" speed="15.00" departed="0" arrived="0" entered="1" left="1" laneChangedFrom="0" laneChangedTo="0"/>
        <edge id="-142575656#6" sampledSeconds="12.10" traveltime="4.51" overlapTraveltime="5.32" density="0.49" occupancy="0.11" waitingTime="0.00" speed="10.32" departed="0" arrived="0" entered="3" left="2" laneChangedFrom="0" laneChangedTo="0"/>
        <edge id="-142575656#7" sampledSeconds="85.32" traveltime="5.47" overlapTraveltime="6.56" density="3.26" occupancy="0.73" waitingTime="1.00" speed="8.89" departed="0" arrived="0" entered="13" left="13" laneChangedFrom="0" laneChangedTo="0"/>
        <edge id="-142575656#8" sampledSeconds="27.98" traveltime="1.61" overlapTraveltime="2.02" density="2.96" occupancy="0.59" waitingTime="0.00" speed="12.02" departed="0" arrived="1" entered="14" left="13" laneChangedFrom="0" laneChangedTo="0"/>
        <edge id="-142575656#9" sampledSeconds="10.33" traveltime="0.38" overlapTraveltime="0.79" density="4.82" occupancy="0.56" waitingTime="0.00" speed="11.79" departed="0" arrived="0" entered="13" left="13" laneChangedFrom="0" laneChangedTo="0"/>
        <edge id="-142575657#0" sampledSeconds="18.64" traveltime="5.47" overlapTraveltime="6.21" density="0.61" occupancy="0.14" waitingTime="0.00" speed="10.81" departed="0" arrived="0" entered="3" left="3" laneChangedFrom="0" laneChangedTo="0"/>
        <edge id="-142575657#1" sampledSeconds="12.44" traveltime="2.83" overlapTraveltime="3.22" density="0.85" occupancy="0.18" waitingTime="0.00" speed="10.82" departed="0" arrived="1" entered="4" left="3" laneChangedFrom="0" laneChangedTo="0"/>
        <edge id="-142575657#2" sampledSeconds="5.01" traveltime="1.18" overlapTraveltime="1.67" density="1.04" occupancy="0.17" waitingTime="0.00" speed="8.87" departed="0" arrived="0" entered="3" left="3" laneChangedFrom="0" laneChangedTo="0"/>
        <edge id="-142575657#3" sampledSeconds="16.07" traveltime="7.68" overlapTraveltime="8.04" density="0.41" occupancy="0.09" waitingTime="0.00" speed="10.50" departed="0" arrived="0" entered="2" left="2" laneChangedFrom="0" laneChangedTo="0"/>
        <edge id="-142575657#4" sampledSeconds="0.00" departed="0" arrived="0" entered="0" left="0" laneChangedFrom="0" laneChangedTo="0"/>
        <edge id="-142575658#0" sampledSeconds="0.00" departed="0" arrived="0" entered="0" left="0" laneChangedFrom="0" laneChangedTo="0"/>
        <edge id="-142575658#1" sampledSeconds="0.00" departed="0" arrived="0" entered="0" left="0" laneChangedFrom="0" laneChangedTo="0"/>
        <edge id="-142575658#2" sampledSeconds="0.00" departed="0" arrived="0" entered="0" left="0" laneChangedFrom="0" laneChangedTo="0"/>
        <edge id="-142575659#0" sampledSeconds="0.00" departed="0" arrived="0" entered="0" left="0" laneChangedFrom="0" laneChangedTo="0"/>
        <edge id="-142575659#1" sampledSeconds="0.00" departed="0" arrived="0" entered="0" left="0" laneChangedFrom="0" laneChangedTo="0"/>
        <edge id="-142575659#2" sampledSeconds="0.00" departed="0" arrived="0" entered="0" left="0" laneChangedFrom="0" laneChangedTo="0"/>
        <edge id="-142575661#0" sampledSeconds="5.96" traveltime="2.19" overlapTraveltime="2.98" density="0.80" occupancy="0.16" waitingTime="0.00" speed="6.78" departed="0" arrived="0" entered="2" left="2" laneChangedFrom="0" laneChangedTo="0"/>
        <edge id="-142575661#1" sampledSeconds="9.90" traveltime="2.81" overlapTraveltime="3.30" density="1.05" occupancy="0.19" waitingTime="0.00" speed="7.36" departed="0" arrived="1" entered="3" left="2" laneChangedFrom="0" laneChangedTo="0"/>
        <edge id="-142575661#2" sampledSeconds="28.55" traveltime="13.63" overlapTraveltime="14.27" density="0.38" occupancy="0.09" waitingTime="0.00" speed="11.00" departed="0" arrived="1" entered="2" left="1" laneChangedFrom="0" laneChangedTo="0"/>
        <edge id="-142575661#3" sampledSeconds="0.00" departed="0" arrived="0" entered="0" left="0" laneChangedFrom="0" laneChangedTo="0"/>
        <edge id="-142575661#4" sampledSeconds="0.00" departed="0" arrived="0" entered="0" left="0" laneChangedFrom="0" laneChangedTo="0"/>
        <edge id="-142575662#0" sampledSeconds="0.00" departed="0" arrived="0" entered="0" left="0" laneChangedFrom="0" laneChangedTo="0"/>
        <edge id="-142575662#1" sampledSeconds="9.72" traveltime="9.36" overlapTraveltime="9.72" density="0.17" occupancy="0.04" waitingTime="0.00" speed="12.74" departed="0" arrived="1" entered="1" left="0" laneChangedFrom="0" laneChangedTo="0"/>
        <edge id="-142575662#2" sampledSeconds="16.10" traveltime="15.57" overlapTraveltime="16.64" density="0.21" occupancy="0.05" waitingTime="0.00" speed="9.48" departed="1" arrived="0" entered="0" left="1" laneChangedFrom="0" laneChangedTo="0"/>
        <edge id="-142575672#2" sampledSeconds="103.78" traveltime="16.51" overlapTraveltime="17.30" density="8.35" occupancy="1.33" waitingTime="73.00" speed="1.75" departed="0" arrived="0" entered="6" left="6" laneChangedFrom="0" laneChangedTo="0"/>
        <edge id="-142575673" sampledSeconds="0.00" departed="0" arrived="0" entered="0" left="0" laneChangedFrom="0" laneChangedTo="0"/>
        <edge id="-142575674#0" sampledSeconds="9.17" traveltime="0.08" overlapTraveltime="0.90" density="40.59" occupancy="0.85" waitingTime="0.00" speed="6.08" departed="0" arrived="1" entered="11" left="10" laneChangedFrom="0" laneChangedTo="0"/>
        <edge id="-142575674#1" sampledSeconds="72.99" traveltime="6.41" overlapTraveltime="7.30" density="1.95" occupancy="0.44" waitingTime="0.00" speed="11.13" departed="0" arrived="0" entered="10" left="10" laneChangedFrom="0" laneChangedTo="0"/>
        <edge id="-142575674#4" sampledSeconds="36.96" traveltime="3.32" overlapTraveltime="3.70" density="1.87" occupancy="0.41" waitingTime="0.00" speed="12.23" departed="0" arrived="0" entered="10" left="10" laneChangedFrom="0" laneChangedTo="0"/>
        <edge id="-142575677#0" sampledSeconds="0.00" departed="0" arrived="0" entered="0" left="0" laneChangedFrom="0" laneChangedTo="0"/>
        <edge id="-142575677#1" sampledSeconds="8.30" traveltime="7.41" overlapTraveltime="8.30" density="0.19" occupancy="0.04" waitingTime="0.00" speed="11.23" departed="0" arrived="0" entered="1" left="1" laneChangedFrom="0" laneChangedTo="0"/>
        <edge id="-142575677#2" sampledSeconds="12.51" traveltime="12.16" overlapTraveltime="12.51" density="0.15" occupancy="0.04" waitingTime="0.00" speed="14.28" departed="0" arrived="0" entered="1" left="1" laneChangedFrom="0" laneChangedTo="0"/>
        <edge id="-142575677#3" sampledSeconds="8.78" traveltime="3.59" overlapTraveltime="4.39" density="0.46" occupancy="0.10" waitingTime="0.00" speed="9.91" departed="0" arrived="0" entered="2" left="2" laneChangedFrom="0" laneChangedTo="0"/>
        <edge id="-142575684#0" sampledSeconds="9.93" traveltime="1.61" overlapTraveltime="1.99" density="1.02" occupancy="0.20" waitingTime="0.00" speed="12.47" departed="0" arrived="0" entered="5" left="5" laneChangedFrom="0" laneChangedTo="0"/>
        <edge id="-142575684#1" sampledSeconds="7.74" traveltime="1.18" overlapTraveltime="1.65" density="1.40" occupancy="0.26" waitingTime="0.00" speed="9.86" departed="1" arrived="0" entered="4" left="5" laneChangedFrom="0" laneChangedTo="0"/>
        <edge id="-142575684#4" sampledSeconds="23.93" traveltime="5.60" overlapTraveltime="5.98" density="0.65" occupancy="0.15" waitingTime="0.00" speed="13.30" departed="0" arrived="0" entered="4" left="4" laneChangedFrom="0" laneChangedTo="0"/>
        <edge id="-142575684#5" sampledSeconds="71.37" traveltime="17.93" overlapTraveltime="18.30" density="0.73" occupancy="0.18" waitingTime="0.00" speed="11.11" departed="4" arrived="0" entered="0" left="4" laneChangedFrom="0" laneChangedTo="0"/>
        <edge id="-142575687#0" sampledSeconds="24.88" traveltime="7.89" overlapTraveltime="8.29" density="0.57" occupancy="0.13" waitingTime="0.00" speed="11.23" departed="0" arrived="1" entered="3" left="2" laneChangedFrom="0" laneChangedTo="0"/>
        <edge id="-142575687#1" sampledSeconds="3.21" traveltime="2.86" overlapTraveltime="3.21" density="0.20" occupancy="0.04" waitingTime="0.00" speed="11.97" departed="0" arrived="0" entered="1" left="1" laneChangedFrom="0" laneChangedTo="0"/>
        <edge id="-142575688#0" sampledSeconds="9.65" traveltime="4.13" overlapTraveltime="4.83" density="0.45" occupancy="0.10" waitingTime="0.00" speed="10.10" departed="0" arrived="0" entered="2" left="2" laneChangedFrom="0" laneChangedTo="0"/>
        <edge id="-142575688#1" sampledSeconds="6.39" traveltime="2.84" overlapTraveltime="3.20" density="0.33" occupancy="0.07" waitingTime="0.00" speed="13.91" departed="0" arrived="0" entered="2" left="2" laneChangedFrom="0" laneChangedTo="0"/>
        <edge id="-142575688#10" sampledSeconds="2.39" traveltime="4.28" overlapTraveltime="4.28" density="0.74" occupancy="0.14" waitingTime="0.00" speed="2.71" departed="1" arrived="0" entered="0" left="1" laneChangedFrom="0" laneChangedTo="0"/>
        <edge id="-142575688#12" sampledSeconds="0.00" departed="0" arrived="0" entered="0" left="0" laneChangedFrom="0" laneChangedTo="0"/>
        <edge id="-142575688#13" sampledSeconds="0.00" departed="0" arrived="0" entered="0" left="0" laneChangedFrom="0" laneChangedTo="0"/>
        <edge id="-142575688#14" sampledSeconds="0.00" departed="0" arrived="0" entered="0" left="0" laneChangedFrom="0" laneChangedTo="0"/>
        <edge id="-142575688#2" sampledSeconds="0.94" traveltime="0.13" overlapTraveltime="0.47" density="1.07" occupancy="0.07" waitingTime="0.00" speed="14.41" departed="0" arrived="0" entered="2" left="2" laneChangedFrom="0" laneChangedTo="0"/>
        <edge id="-142575688#3" sampledSeconds="3.34" traveltime="1.30" overlapTraveltime="1.67" density="0.42" occupancy="0.08" waitingTime="0.00" speed="12.70" departed="0" arrived="0" entered="2" left="2" laneChangedFrom="0" laneChangedTo="0"/>
        <edge id="-142575688#5" sampledSeconds="1.49" traveltime="0.04" overlapTraveltime="0.74" density="11.23" occupancy="0.14" waitingTime="0.00" speed="7.08" departed="0" arrived="0" entered="2" left="2" laneChangedFrom="0" laneChangedTo="0"/>
        <edge id="-142575688#6" sampledSeconds="6.94" traveltime="2.60" overlapTraveltime="3.47" density="0.48" occupancy="0.10" waitingTime="0.00" speed="9.91" departed="0" arrived="0" entered="2" left="2" laneChangedFrom="0" laneChangedTo="0"/>
        <edge id="-142575688#7" sampledSeconds="4.83" traveltime="2.06" overlapTraveltime="2.42" density="0.35" occupancy="0.07" waitingTime="0.00" speed="13.68" departed="0" arrived="0" entered="2" left="2" laneChangedFrom="0" laneChangedTo="0"/>
        <edge id="-142575688#8" sampledSeconds="5.64" traveltime="2.44" overlapTraveltime="2.82" density="0.42" occupancy="0.09" waitingTime="0.00" speed="11.42" departed="0" arrived="0" entered="2" left="2" laneChangedFrom="0" laneChangedTo="0"/>
        <edge id="-142575688#9" sampledSeconds="3.21" traveltime="0.97" overlapTraveltime="1.60" density="1.14" occupancy="0.15" waitingTime="0.00" speed="6.69" departed="0" arrived="0" entered="2" left="2" laneChangedFrom="0" laneChangedTo="0"/>
        <edge id="-142575689" sampledSeconds="32.47" traveltime="10.07" overlapTraveltime="11.02" density="0.75" occupancy="0.35" waitingTime="0.00" speed="8.46" departed="1" arrived="0" entered="2" left="3" laneChangedFrom="0" laneChangedTo="0"/>
        <edge id="-142575690#0" sampledSeconds="7.26" traveltime="2.72" overlapTraveltime="3.63" density="0.73" occupancy="0.29" waitingTime="0.00" speed="6.95" departed="0" arrived="0" entered="2" left="2" laneChangedFrom="0" laneChangedTo="0"/>
        <edge id="-142575690#2" sampledSeconds="4.23" traveltime="1.93" overlapTraveltime="2.56" density="0.91" occupancy="0.35" waitingTime="0.00" speed="5.65" departed="1" arrived="0" entered="1" left="2" laneChangedFrom="0" laneChangedTo="0"/>
        <edge id="-142575690#3" sampledSeconds="5.28" traveltime="4.77" overlapTraveltime="5.28" density="0.23" occupancy="0.10" waitingTime="0.00" speed="9.74" departed="0" arrived="0" entered="1" left="1" laneChangedFrom="0" laneChangedTo="0"/>
        <edge id="-142575690#5" sampledSeconds="3.13" traveltime="2.64" overlapTraveltime="3.13" density="0.24" occupancy="0.10" waitingTime="0.00" speed="10.11" departed="0" arrived="0" entered="1" left="1" laneChangedFrom="0" laneChangedTo="0"/>
        <edge id="-142575690#6" sampledSeconds="8.74" traveltime="8.21" overlapTraveltime="8.74" density="0.22" occupancy="0.10" waitingTime="0.00" speed="9.76" departed="0" arrived="0" entered="1" left="1" laneChangedFrom="0" laneChangedTo="0"/>
        <edge id="-142575690#7" sampledSeconds="6.34" traveltime="5.84" overlapTraveltime="6.34" density="0.23" occupancy="0.10" waitingTime="0.00" speed="9.68" departed="0" arrived="0" entered="1" left="1" laneChangedFrom="0" laneChangedTo="0"/>
        <edge id="-142575690#8" sampledSeconds="3.38" traveltime="4.16" overlapTraveltime="4.65" density="0.50" occupancy="0.22" waitingTime="0.00" speed="4.00" departed="1" arrived="0" entered="0" left="1" laneChangedFrom="0" laneChangedTo="0"/>
        <edge id="-142575691#0" sampledSeconds="3.27" traveltime="0.17" overlapTraveltime="1.09" density="7.39" occupancy="0.28" waitingTime="0.00" speed="5.42" departed="0" arrived="0" entered="3" left="3" laneChangedFrom="0" laneChangedTo="0"/>
        <edge id="-142575691#1" sampledSeconds="6.97" traveltime="1.52" overlapTraveltime="2.32" density="1.14" occupancy="0.20" waitingTime="0.00" speed="7.52" departed="0" arrived="0" entered="3" left="3" laneChangedFrom="0" laneChangedTo="0"/>
        <edge id="-142575691#2" sampledSeconds="10.19" traveltime="2.98" overlapTraveltime="3.40" density="0.55" occupancy="0.12" waitingTime="0.00" speed="12.64" departed="0" arrived="0" entered="3" left="3" laneChangedFrom="0" laneChangedTo="0"/>
        <edge id="-142575691#5" sampledSeconds="27.23" traveltime="4.92" overlapTraveltime="5.55" density="1.12" occupancy="0.25" waitingTime="0.00" speed="9.81" departed="1" arrived="1" entered="4" left="4" laneChangedFrom="0" laneChangedTo="0"/>
        <edge id="-142575694#0" sampledSeconds="0.00" departed="0" arrived="0" entered="0" left="0" laneChangedFrom="0" laneChangedTo="0"/>
        <edge id="-142575694#1" sampledSeconds="14.31" traveltime="13.87" overlapTraveltime="14.31" density="0.18" occupancy="0.04" waitingTime="0.00" speed="11.63" departed="0" arrived="1" entered="1" left="0" laneChangedFrom="0" laneChangedTo="0"/>