<?xml version="1.0" encoding="UTF-8"?>

<!-- generated on 2021-09-09 14:44:19 by Eclipse SUMO sumo Version v1_10_0+0628-acc12d25d38
<configuration xmlns:xsi="http://www.w3.org/2001/XMLSchema-instance" xsi:noNamespaceSchemaLocation="http://sumo.dlr.de/xsd/sumoConfiguration.xsd">

    <input>
        <net-file value="osm.net.xml"/>
        <route-files value="osm_pt.rou.xml"/>
        <additional-files value="osm_stops.add.xml"/>
    </input>

    <output>
        <vehroute-output value="osm_pt_vehs.rou.xml"/>
    </output>

    <report>
        <verbose value="true"/>
    </report>

</configuration>
-->

<routes xmlns:xsi="http://www.w3.org/2001/XMLSchema-instance" xsi:noNamespaceSchemaLocation="http://sumo.dlr.de/xsd/routes_file.xsd">
    <vehicle id="pt_bus_172:1.0" type="pt_bus" depart="52.00" line="172:1" arrival="372.00">
        <route edges="145586617#0 145586617#1 145586617#2 145586617#3 145586617#4 145586617#5 145586617#6"/>
        <stop busStop="664609175" duration="30.00" until="98.00"/>
        <stop busStop="664609167" duration="30.00" until="177.00"/>
        <stop busStop="664609202" duration="30.00" until="236.00"/>
        <stop busStop="664609200" duration="30.00" until="306.00"/>
        <stop busStop="664609198" duration="30.00" until="357.00"/>
        <param key="completeness" value="0.11"/>
        <param key="name" value="Bus 172: U Rudow =&gt; S Lichtenrade/Blohmstraße"/>
    </vehicle>

    <vehicle id="pt_bus_160:0.0" type="pt_bus" depart="3.00" line="160:0" arrival="507.00">
        <route edges="141968799 141968830#1 141968830#2 141968810#0 141968810#1 141968844#2 141968844#3 141968844#4 141968823#0 141968823#1 141968853#0 141968853#1 141968853#2 46150483#0 46150483#1 206579057 206579058#1 46039050#1 46039050#4 46039050#7 143308587#1 24214694#3 24214694#4 24214694#5 190083618#0 -283317455#1 -143308570 -318210395 -190083616 46150481#0 46150481#1"/>
        <stop busStop="837697182" duration="30.00" until="69.00"/>
        <stop busStop="837696912" duration="30.00" until="158.00"/>
        <stop busStop="837696524" duration="30.00" until="281.00"/>
        <stop busStop="1560223236" duration="30.00" until="381.00"/>
        <stop busStop="852932398" duration="30.00" until="494.00"/>
        <param key="completeness" value="0.16"/>
        <param key="name" value="Bus 160: S Schöneweide =&gt; Altglienicke, Siriusstraße"/>
    </vehicle>

    <vehicle id="pt_bus_162:1.0" type="pt_bus" depart="58.00" line="162:1" arrival="533.00">
        <route edges="-46150481#1 -46150481#0 190083616 318210395 143308570 283317455#0 -190083618#1 -24214694#5 -24214694#4 -24214694#3 143308590#0 143308542#1 143308542#3 143308542#4 143308542#6 143308542#8 143308542#12 143308542#13 143308542#14 143308542#15 143308552#1 143308549#1 143308549#2 143308549#3 158236381 220194458#3 806903753"/>
        <stop busStop="-851572693" duration="30.00" until="103.00"/>
        <stop busStop="464396487" duration="30.00" until="240.00"/>
        <stop busStop="306982602" duration="30.00" until="312.00"/>
        <stop busStop="464396589" duration="30.00" until="381.00"/>
        <stop busStop="5315085711" duration="30.00" until="533.00"/>
        <param key="completeness" value="0.45"/>
        <param key="name" value="Bus 162: U Rudow =&gt; S Adlershof"/>
    </vehicle>

    <vehicle id="pt_tram_61:0.0" type="pt_tram" depart="201.00" line="61:0" arrival="538.00">
        <route edges="385981675#1 158236729#1 158236729#2 158236729#3 158236729#4 158236729#5 158236729#6 158236729#8 158236729#9 220198808#1 220198808#4 220198808#5 220198808#6 220198808#9 220198808#12 158236381 220194458#3 806903753"/>
        <stop busStop="1704693343" duration="30.00" until="243.00"/>
        <stop busStop="1704693389" duration="30.00" until="333.00"/>
        <stop busStop="1704693457" duration="30.00" until="401.00"/>
        <param key="completeness" value="0.17"/>
        <param key="name" value="Tram 61: Adlershof, Karl-Ziegler-Straße =&gt; Rahnsdorf/Waldschänke"/>
    </vehicle>

    <vehicle id="pt_train_S45:0.0" type="pt_train" depart="303.00" line="S45:0" arrival="549.00">
        <route edges="22917994"/>
        <stop busStop="3508654675" duration="30.00" until="391.00"/>
        <param key="completeness" value="0.07"/>
        <param key="name" value="S45: S Flughafen BER - Terminal 1-2 =&gt; S Südkreuz"/>
    </vehicle>

    <vehicle id="pt_bus_162:0.0" type="pt_bus" depart="55.00" line="162:0" arrival="550.00">
        <route edges="206889086#1 541676219 318210389#0 670062912#1 81639675#1 81639675#2 81639675#3 81639675#4 670062909#1 670062908#1 670062907#1 670062907#2 670062907#4 677933664#4 143308546#0 143308546#1 143308546#3 143308546#7 143308546#8 670062902#2 143308587#1 24214694#3 24214694#4 24214694#5 190083618#0 -283317455#1 -143308570 -318210395 -190083616 46150481#0 46150481#1"/>
        <stop busStop="1656195133" duration="30.00" until="93.00"/>
        <stop busStop="464396566" duration="30.00" until="201.00"/>
        <stop busStop="301331956" duration="30.00" until="316.00"/>
        <stop busStop="1560223236" duration="30.00" until="461.00"/>
        <stop busStop="852932398" duration="30.00" until="537.00"/>
        <param key="completeness" value="0.45"/>
        <param key="name" value="Bus 162: S Adlershof =&gt; U Rudow"/>
    </vehicle>

    <vehicle id="pt_train_S45:1.0" type="pt_train" depart="321.00" line="S45:1" arrival="576.00">
        <route edges="431786563 846012128"/>
        <stop busStop="30499115" duration="30.00" until="474.00"/>
        <param key="completeness" value="0.07"/>
        <param key="name" value="S45: S Südkreuz =&gt; S Flughafen BER - Terminal 1-2"/>
    </vehicle>

    <vehicle id="pt_bus_163:0.0" type="pt_bus" depart="93.00" line="163:0" arrival="616.00">
        <route edges="144909690 375685718#0 375685718#1 382647882 12749623 81639678#0 81639678#1 48858191#1 318210383#0 52243916#1 -43660343#1 -43660343#0 10735918#0 204721579#2 204721579#4 204721579#6 153021549#0 153021549#1 153021549#2 153021549#3 153021549#4 153021549#5 40191606#0 40191606#2 40191606#3 414563781 206889086#1"/>
        <stop busStop="301263813" duration="30.00" until="133.00"/>
        <stop busStop="94487938" duration="30.00" until="220.00"/>
        <stop busStop="1383533462" duration="30.00" until="422.00"/>
        <stop busStop="1862990707" duration="30.00" until="485.00"/>
        <stop busStop="1656195133" duration="30.00" until="568.00"/>
        <param key="completeness" value="0.26"/>
        <param key="name" value="Bus 163: Flughafen BER - Terminal 5 =&gt; S Adlershof"/>
    </vehicle>

    <vehicle id="pt_tram_63:0.0" type="pt_tram" depart="227.00" line="63:0" arrival="620.00">
        <route edges="385981675#1 158236729#1 158236729#2 158236729#3 158236729#4 158236729#5 158236729#6 158236729#8 158236729#9 220198808#1 220198808#4 220198808#5 220198808#6 220198808#9 220198808#12 158236381 220194458#3 806903753"/>
        <stop busStop="1704693343" duration="30.00" until="282.00"/>
        <stop busStop="1704693389" duration="30.00" until="389.00"/>
        <stop busStop="1704693457" duration="30.00" until="502.00"/>
        <param key="completeness" value="0.19"/>
        <param key="name" value="Tram 63: Adlershof, Karl-Ziegler-Straße =&gt; S Köpenick (=&gt; Mahlsdorf, Rahnsdorfer Straße)"/>
    </vehicle>

    <vehicle id="pt_train_S8:1.0" type="pt_train" depart="383.00" line="S8:1" arrival="629.00">
        <route edges="22917994"/>
        <stop busStop="3508654675" duration="30.00" until="471.00"/>
        <param key="completeness" value="0.04"/>
        <param key="name" value="S8: S Zeuthen =&gt; S Birkenwerder"/>
    </vehicle>

    <vehicle id="pt_train_S8:0.0" type="pt_train" depart="362.00" line="S8:0" arrival="643.00">
        <route edges="431786563 846012128"/>
        <stop busStop="30499115" duration="30.00" until="541.00"/>
        <param key="completeness" value="0.04"/>
        <param key="name" value="S8: S Birkenwerder =&gt; S Zeuthen"/>
    </vehicle>

    <vehicle id="pt_bus_260:0.0" type="pt_bus" depart="133.00" line="260:0" arrival="652.00">
        <route edges="206889086#1 541676219 318210389#0 670062912#1 81639675#1 81639675#2 81639675#3 81639675#4 -318210361#2 -318210361#0 -314415495#25 -314415495#22 -314415495#21 -314415495#19 -314415495#17 -314415495#16 -314415495#15 -314415495#14 -314415495#13 -314415495#12 -314415495#11 -314415495#10 -314415495#9 -314415495#8 -314415495#7 -314415495#6 -314415495#5 -314415495#4 -314415495#3 -314415495#1 -314415495#0 -81639685#2 48858192#1 318210388#0 -318210386#1 -81639678#0 -12749623 -318210387 -375685718#1 -375685718#0 -144909690"/>
        <stop busStop="1656195133" duration="30.00" until="172.00"/>
        <stop busStop="-385200818" duration="30.00" until="302.00"/>
        <stop busStop="-1560223790" duration="30.00" until="372.00"/>
        <stop busStop="-1560223555" duration="30.00" until="426.00"/>
        <stop busStop="-942861696" duration="30.00" until="568.00"/>
        <stop busStop="-94487924" duration="30.00" until="646.00"/>
        <param key="completeness" value="0.27"/>
        <param key="name" value="Bus 260: S Adlershof =&gt; U Rudow"/>
    </vehicle>

    <vehicle id="pt_tram_61:1.0" type="pt_tram" depart="204.00" line="61:1" arrival="673.00">
        <route edges="179699939#0 179699939#1 179699939#2 179699939#3 179699939#4 179699939#5 179699939#6 179699939#7 179699939#12 179699939#13 179699939#14 179699939#15 179699936 179699938#6 179699938#7 179699938#8 206889079#3 206889079#6 206889079#9 206889079#10 206889079#11 206889079#14 206889079#15 220198810#1 220198810#3 220198810#4 220198810#5 220198810#6 220198810#7 220198810#8 220198810#9"/>
        <stop busStop="1704693444" duration="30.00" until="345.00"/>
        <stop busStop="1704693451" duration="30.00" until="473.00"/>
        <stop busStop="1704693381" duration="30.00" until="553.00"/>
        <stop busStop="1704693369" duration="30.00" until="663.00"/>
        <param key="completeness" value="0.14"/>
        <param key="name" value="Tram 61: Rahnsdorf/Waldschänke =&gt; Adlershof, Karl-Ziegler-Straße"/>
    </vehicle>

    <vehicle id="pt_bus_163:1.0" type="pt_bus" depart="119.00" line="163:1" arrival="691.00">
        <route edges="806903753 218797686#0 72230304#1 461514282#0 461514282#1 204721578#0 977639651#1 153021553 318210353 207086005 977639652 318210360#0 152839434#1 43660343#0 43660343#1 48298278#0 48858192#1 318210388#0 -318210386#1 -81639678#0 -12749623 -318210387 -375685718#1 -375685718#0 -144909690"/>
        <stop busStop="5315085711" duration="30.00" until="150.00"/>
        <stop busStop="3812676495" duration="30.00" until="307.00"/>
        <stop busStop="1383533461" duration="30.00" until="368.00"/>
        <stop busStop="-942861696" duration="30.00" until="606.00"/>
        <stop busStop="-94487924" duration="30.00" until="684.00"/>
        <param key="completeness" value="0.26"/>
        <param key="name" value="Bus 163: S Adlershof =&gt; Flughafen BER - Terminal 5"/>
    </vehicle>

    <vehicle id="pt_train_S9:0.0" type="pt_train" depart="416.00" line="S9:0" arrival="696.00">
        <route edges="22917994"/>
        <stop busStop="3508654675" duration="30.00" until="538.00"/>
        <param key="completeness" value="0.03"/>
        <param key="name" value="S9: S Flughafen BER - Terminal 1-2 =&gt; S Spandau"/>
    </vehicle>

    <vehicle id="pt_train_S9:1.0" type="pt_train" depart="418.00" line="S9:1" arrival="710.00">
        <route edges="431786563 846012128"/>
        <stop busStop="30499115" duration="30.00" until="608.00"/>
        <param key="completeness" value="0.03"/>
        <param key="name" value="S9: S Spandau =&gt; S Flughafen BER - Terminal 1-2"/>
    </vehicle>

    <vehicle id="pt_tram_63:1.0" type="pt_tram" depart="253.00" line="63:1" arrival="729.00">
        <route edges="179699939#0 179699939#1 179699939#2 179699939#3 179699939#4 179699939#5 179699939#6 179699939#7 179699939#12 179699939#13 179699939#14 179699939#15 179699936 179699938#6 179699938#7 179699938#8 206889079#3 206889079#6 206889079#9 206889079#10 206889079#11 206889079#14 206889079#15 220198810#1 220198810#3 220198810#4 220198810#5 220198810#6 220198810#7 220198810#8 220198810#9"/>
        <stop busStop="1704693444" duration="30.00" until="384.00"/>
        <stop busStop="1704693451" duration="30.00" until="525.00"/>
        <stop busStop="1704693381" duration="30.00" until="605.00"/>
        <stop busStop="1704693369" duration="30.00" until="719.00"/>
        <param key="completeness" value="0.16"/>
        <param key="name" value="Tram 63: (Mahlsdorf, Rahnsdorfer Straße =&gt;) S Köpenick =&gt; Adlershof, Karl-Ziegler-Straße"/>
    </vehicle>

    <vehicle id="pt_train_S46:0.0" type="pt_train" depart="449.00" line="S46:0" arrival="763.00">
        <route edges="22917994"/>
        <stop busStop="3508654675" duration="30.00" until="605.00"/>
        <param key="completeness" value="0.04"/>
        <param key="name" value="S46: S Königs Wusterhausen =&gt; S Westend"/>
    </vehicle>

    <vehicle id="pt_train_S46:1.0" type="pt_train" depart="451.00" line="S46:1" arrival="777.00">
        <route edges="431786563 846012128"/>
        <stop busStop="30499115" duration="30.00" until="675.00"/>
        <param key="completeness" value="0.04"/>
        <param key="name" value="S46: S Westend =&gt; S Königs Wusterhausen"/>
    </vehicle>

    <vehicle id="pt_bus_260:1.0" type="pt_bus" depart="353.00" line="260:1" arrival="815.00">
        <route edges="144909690 375685718#0 375685718#1 382647882 12749623 81639678#0 81639678#1 48858191#1 318210383#0 81639685#1 314415495#0 314415495#1 314415495#3 314415495#4 314415495#5 314415495#6 314415495#7 314415495#8 314415495#9 314415495#10 314415495#11 314415495#12 314415495#13 314415495#14 314415495#15 314415495#16 314415495#17 314415495#19 314415495#21 314415495#22 314415495#25 318210361#0 318210361#1 143308549#1 143308549#2 143308549#3 158236381 220194458#3 806903753"/>
        <stop busStop="301263813" duration="30.00" until="393.00"/>
        <stop busStop="94487938" duration="30.00" until="477.00"/>
        <stop busStop="945142241" duration="30.00" until="573.00"/>
        <stop busStop="664208807" duration="30.00" until="630.00"/>
        <stop busStop="385200819" duration="30.00" until="696.00"/>
        <stop busStop="5315085711" duration="30.00" until="814.00"/>
        <param key="completeness" value="0.27"/>
        <param key="name" value="Bus 260: U Rudow =&gt; S Adlershof"/>
    </vehicle>

    <vehicle id="pt_train_S85:0.0" type="pt_train" depart="496.00" line="S85:0" arrival="830.00">
        <route edges="22917994"/>
        <stop busStop="3508654675" duration="30.00" until="672.00"/>
        <param key="completeness" value="0.06"/>
        <param key="name" value="S85: S Grünau =&gt; S Pankow"/>
    </vehicle>

    <vehicle id="pt_train_S85:1.0" type="pt_train" depart="484.00" line="S85:1" arrival="844.00">
        <route edges="431786563 846012128"/>
        <stop busStop="30499115" duration="30.00" until="742.00"/>
        <param key="completeness" value="0.06"/>
        <param key="name" value="S85: S Pankow =&gt; S Grünau"/>
    </vehicle>

    <vehicle id="pt_bus_163:2.0" type="pt_bus" depart="131.00" line="163:2" arrival="895.00">
        <route edges="70130339#0 70130339#1 70130339#2 70130339#3 70130339#4 118262353#2 -38915290#2 -38915290#1 -318210378#1 -318210378#0 -887919960#5 -887919960#4 -887919960#0 -318210377#0 -31050360#2 143308552#1 143308549#1 143308549#2 143308549#3 158236381 220194458#3 806903753 218797686#0 72230304#1 461514282#0 461514282#1 204721578#0 977639651#1 153021553 318210353 207086005 977639652 318210360#0 152839434#1 43660343#0 43660343#1 48298278#0 48858192#1 318210388#0 -318210386#1 -81639678#0 -12749623 -318210387 -375685718#1 -375685718#0 -144909690"/>
        <stop busStop="2050022025" duration="30.00" until="180.00"/>
        <stop busStop="-945142208" duration="30.00" until="259.00"/>
        <stop busStop="5315085711" duration="30.00" until="409.00"/>
        <stop busStop="3812676495" duration="30.00" until="527.00"/>
        <stop busStop="1383533461" duration="30.00" until="589.00"/>
        <stop busStop="-942861696" duration="30.00" until="811.00"/>
        <stop busStop="-94487924" duration="30.00" until="887.00"/>
        <param key="completeness" value="0.27"/>
        <param key="name" value="Bus 163: S Schöneweide =&gt; Flughafen BER - Terminal 5"/>
    </vehicle>

    <vehicle id="pt_bus_164:0.0" type="pt_bus" depart="165.00" line="164:0" arrival="930.00">
        <route edges="-23913524#4 -23913524#3 -23913524#2 -23913524#1 -23913524#0 137534616#0 137534616#1 137534616#2 137534616#3 137534616#4 166142951#0 166142951#1 149611526#0 149611526#1 40191606#0 40191606#2 40191606#3 414563781 206889086#1 541676219 318210389#0 670062912#1 81639675#1 81639675#2 81639675#3 81639675#4 670062909#1 670062908#1 670062907#1 670062907#2 670062907#4 677933664#4 143308546#0 143308546#1 143308546#3 143308546#7 143308546#8 670062902#2 143308587#1 24214694#3 24214694#4 24214694#5 190083618#0 -283317455#1 -143308570 -318210395 -190083616 46150481#0 46150481#1"/>
        <stop busStop="-1383533494" duration="30.00" until="219.00"/>
        <stop busStop="1383533577" duration="30.00" until="282.00"/>
        <stop busStop="1383533575" duration="30.00" until="351.00"/>
        <stop busStop="1656195133" duration="30.00" until="435.00"/>
        <stop busStop="464396566" duration="30.00" until="616.00"/>
        <stop busStop="301331956" duration="30.00" until="684.00"/>
        <stop busStop="1560223236" duration="30.00" until="823.00"/>
        <stop busStop="852932398" duration="30.00" until="919.00"/>
        <param key="completeness" value="0.31"/>
        <param key="name" value="Buslinie 164: S Köpenick =&gt; Flughafen BER - Terminal 5"/>
    </vehicle>

    <vehicle id="pt_bus_172:1.1" type="pt_bus" depart="652.00" line="172:1" arrival="974.00">
        <route edges="145586617#0 145586617#1 145586617#2 145586617#3 145586617#4 145586617#5 145586617#6"/>
        <stop busStop="664609175" duration="30.00" until="698.00"/>
        <stop busStop="664609167" duration="30.00" until="777.00"/>
        <stop busStop="664609202" duration="30.00" until="836.00"/>
        <stop busStop="664609200" duration="30.00" until="906.00"/>
        <stop busStop="664609198" duration="30.00" until="957.00"/>
        <param key="completeness" value="0.11"/>
        <param key="name" value="Bus 172: U Rudow =&gt; S Lichtenrade/Blohmstraße"/>
    </vehicle>

    <vehicle id="pt_bus_160:0.1" type="pt_bus" depart="603.00" line="160:0" arrival="1105.00">
        <route edges="141968799 141968830#1 141968830#2 141968810#0 141968810#1 141968844#2 141968844#3 141968844#4 141968823#0 141968823#1 141968853#0 141968853#1 141968853#2 46150483#0 46150483#1 206579057 206579058#1 46039050#1 46039050#4 46039050#7 143308587#1 24214694#3 24214694#4 24214694#5 190083618#0 -283317455#1 -143308570 -318210395 -190083616 46150481#0 46150481#1"/>
        <stop busStop="837697182" duration="30.00" until="669.00"/>
        <stop busStop="837696912" duration="30.00" until="758.00"/>
        <stop busStop="837696524" duration="30.00" until="881.00"/>
        <stop busStop="1560223236" duration="30.00" until="981.00"/>
        <stop busStop="852932398" duration="30.00" until="1094.00"/>
        <param key="completeness" value="0.16"/>
        <param key="name" value="Bus 160: S Schöneweide =&gt; Altglienicke, Siriusstraße"/>
    </vehicle>

    <vehicle id="pt_bus_164:1.0" type="pt_bus" depart="389.00" line="164:1" arrival="1120.00">
        <route edges="-46150481#1 -46150481#0 190083616 318210395 143308570 283317455#0 -190083618#1 -24214694#5 -24214694#4 -24214694#3 143308590#0 143308542#1 143308542#3 143308542#4 143308542#6 143308542#8 143308542#12 143308542#13 143308542#14 143308542#15 143308552#1 143308549#1 143308549#2 143308549#3 158236381 220194458#3 806903753 218797686#0 -679901152#1 -45875465 152839428 24152326#0 24152326#1 23925124#0 23925124#1 23925124#2 -166142951#1 -166142951#0 -137534616#4 -137534616#3 -137534616#2 -137534616#1 -137534616#0 23913524#0 23913524#1 23913524#2 23913524#3 23913524#4"/>
        <stop busStop="-851572693" duration="30.00" until="435.00"/>
        <stop busStop="464396487" duration="30.00" until="552.00"/>
        <stop busStop="306982602" duration="30.00" until="616.00"/>
        <stop busStop="464396589" duration="30.00" until="698.00"/>
        <stop busStop="5315085711" duration="30.00" until="852.00"/>
        <stop busStop="1383533459" duration="30.00" until="952.00"/>
        <stop busStop="-1383533578" duration="30.00" until="1041.00"/>
        <stop busStop="1383533492" duration="30.00" until="1103.00"/>
        <param key="completeness" value="0.30"/>
        <param key="name" value="Buslinie 164: Flughafen BER - Terminal 5 =&gt; S Köpenick"/>
    </vehicle>

    <vehicle id="pt_bus_162:1.1" type="pt_bus" depart="658.00" line="162:1" arrival="1133.00">
        <route edges="-46150481#1 -46150481#0 190083616 318210395 143308570 283317455#0 -190083618#1 -24214694#5 -24214694#4 -24214694#3 143308590#0 143308542#1 143308542#3 143308542#4 143308542#6 143308542#8 143308542#12 143308542#13 143308542#14 143308542#15 143308552#1 143308549#1 143308549#2 143308549#3 158236381 220194458#3 806903753"/>
        <stop busStop="-851572693" duration="30.00" until="703.00"/>
        <stop busStop="464396487" duration="30.00" until="840.00"/>
        <stop busStop="306982602" duration="30.00" until="912.00"/>
        <stop busStop="464396589" duration="30.00" until="981.00"/>
        <stop busStop="5315085711" duration="30.00" until="1133.00"/>
        <param key="completeness" value="0.45"/>
        <param key="name" value="Bus 162: U Rudow =&gt; S Adlershof"/>
    </vehicle>

    <vehicle id="pt_bus_162:0.1" type="pt_bus" depart="655.00" line="162:0" arrival="1167.00">
        <route edges="206889086#1 541676219 318210389#0 670062912#1 81639675#1 81639675#2 81639675#3 81639675#4 670062909#1 670062908#1 670062907#1 670062907#2 670062907#4 677933664#4 143308546#0 143308546#1 143308546#3 143308546#7 143308546#8 670062902#2 143308587#1 24214694#3 24214694#4 24214694#5 190083618#0 -283317455#1 -143308570 -318210395 -190083616 46150481#0 46150481#1"/>
        <stop busStop="1656195133" duration="30.00" until="693.00"/>
        <stop busStop="464396566" duration="30.00" until="801.00"/>
        <stop busStop="301331956" duration="30.00" until="916.00"/>
        <stop busStop="1560223236" duration="30.00" until="1061.00"/>
        <stop busStop="852932398" duration="30.00" until="1137.00"/>
        <param key="completeness" value="0.45"/>
        <param key="name" value="Bus 162: S Adlershof =&gt; U Rudow"/>
    </vehicle>

    <vehicle id="pt_bus_160:1.0" type="pt_bus" depart="508.00" line="160:1" arrival="1168.00">
        <route edges="81096611#0 81096611#1 81096611#2 169076556#0 169076556#1 169076556#2 169076556#3 190083616 318210395 143308570 283317455#0 -190083618#1 -24214694#5 -24214694#4 -24214694#3 143308590#0 143308532#1 143308532#4 143308532#7 46039051#1 -141968853#2 -141968853#1 -141968853#0 141968814#0 141968814#1 141968844#6 141968844#7 141968844#8 141968807#0 141968807#1 -141968830#2 -141968830#1 -141968830#0"/>
        <stop busStop="1568240825" duration="30.00" until="550.00"/>
        <stop busStop="851572829" duration="30.00" until="648.00"/>
        <stop busStop="301292770" duration="30.00" until="726.00"/>
        <stop busStop="671564316" duration="30.00" until="867.00"/>
        <stop busStop="837696418" duration="30.00" until="927.00"/>
        <stop busStop="-1553912606" duration="30.00" until="1063.00"/>
        <stop busStop="-1094134880" duration="30.00" until="1108.00"/>
        <param key="completeness" value="0.23"/>
        <param key="name" value="Bus 160: Altglienicke, Siriusstraße =&gt; S Schöneweide"/>
    </vehicle>

    <vehicle id="pt_bus_163:0.1" type="pt_bus" depart="693.00" line="163:0" arrival="1209.00">
        <route edges="144909690 375685718#0 375685718#1 382647882 12749623 81639678#0 81639678#1 48858191#1 318210383#0 52243916#1 -43660343#1 -43660343#0 10735918#0 204721579#2 204721579#4 204721579#6 153021549#0 153021549#1 153021549#2 153021549#3 153021549#4 153021549#5 40191606#0 40191606#2 40191606#3 414563781 206889086#1"/>
        <stop busStop="301263813" duration="30.00" until="733.00"/>
        <stop busStop="94487938" duration="30.00" until="820.00"/>
        <stop busStop="1383533462" duration="30.00" until="1022.00"/>
        <stop busStop="1862990707" duration="30.00" until="1085.00"/>
        <stop busStop="1656195133" duration="30.00" until="1168.00"/>
        <param key="completeness" value="0.26"/>
        <param key="name" value="Bus 163: Flughafen BER - Terminal 5 =&gt; S Adlershof"/>
    </vehicle>

    <vehicle id="pt_bus_163:3.0" type="pt_bus" depart="485.00" line="163:3" arrival="1247.00">
        <route edges="144909690 375685718#0 375685718#1 382647882 12749623 81639678#0 81639678#1 48858191#1 318210383#0 52243916#1 -43660343#1 -43660343#0 10735918#0 204721579#2 204721579#4 204721579#6 153021549#0 153021549#1 153021549#2 153021549#3 153021549#4 153021549#5 40191606#0 40191606#2 40191606#3 414563781 206889086#1 541676219 318210389#0 670062912#1 81639675#1 81639675#2 81639675#3 81639675#4 670062909#1 670062908#1 31050360#1 318210377#0 318210377#1 887919960#4 887919960#5 318210378#0 318210378#1 38915290#1 38915290#2 8025704#0 231626692#0 231626692#1"/>
        <stop busStop="301263813" duration="30.00" until="526.00"/>
        <stop busStop="94487938" duration="30.00" until="613.00"/>
        <stop busStop="1383533462" duration="30.00" until="768.00"/>
        <stop busStop="1862990707" duration="30.00" until="843.00"/>
        <stop busStop="1656195133" duration="30.00" until="961.00"/>
        <stop busStop="945142098" duration="30.00" until="1098.00"/>
        <stop busStop="2050022029" duration="30.00" until="1175.00"/>
        <param key="completeness" value="0.27"/>
        <param key="name" value="Bus 163: Flughafen BER - Terminal 5 =&gt; S Schöneweide"/>
    </vehicle>

    <vehicle id="pt_bus_162:3.0" type="pt_bus" depart="583.00" line="162:3" arrival="1276.00">
        <route edges="-46150481#1 -46150481#0 190083616 318210395 143308570 283317455#0 -190083618#1 -24214694#5 -24214694#4 -24214694#3 143308590#0 143308542#1 143308542#3 143308542#4 143308542#6 143308542#8 143308542#12 143308542#13 143308542#14 143308542#15 143308552#1 143308549#1 143308549#2 143308549#3 158236381 220194458#3 806903753 218797686#0 -679901152#1 -45875465 152839428 24152326#0 24152326#1 23925124#0 23925124#1 23925124#2 -166142951#1 -166142951#0 -137534616#4 -137534616#3 -137534616#2 -137534616#1 -137534616#0 23913524#0 23913524#1 23913524#2 23913524#3 23913524#4"/>
        <stop busStop="-851572693" duration="30.00" until="628.00"/>
        <stop busStop="464396487" duration="30.00" until="760.00"/>
        <stop busStop="306982602" duration="30.00" until="816.00"/>
        <stop busStop="464396589" duration="30.00" until="906.00"/>
        <stop busStop="5315085711" duration="30.00" until="1016.00"/>
        <stop busStop="1383533459" duration="30.00" until="1077.00"/>
        <stop busStop="-1383533578" duration="30.00" until="1165.00"/>
        <stop busStop="1383533492" duration="30.00" until="1227.00"/>
        <param key="completeness" value="0.40"/>
        <param key="name" value="Bus 162: U Rudow =&gt; Schloßplatz Köpenick"/>
    </vehicle>

    <vehicle id="pt_bus_163:1.1" type="pt_bus" depart="719.00" line="163:1" arrival="1290.00">
        <route edges="806903753 218797686#0 72230304#1 461514282#0 461514282#1 204721578#0 977639651#1 153021553 318210353 207086005 977639652 318210360#0 152839434#1 43660343#0 43660343#1 48298278#0 48858192#1 318210388#0 -318210386#1 -81639678#0 -12749623 -318210387 -375685718#1 -375685718#0 -144909690"/>
        <stop busStop="5315085711" duration="30.00" until="750.00"/>
        <stop busStop="3812676495" duration="30.00" until="907.00"/>
        <stop busStop="1383533461" duration="30.00" until="968.00"/>
        <stop busStop="-942861696" duration="30.00" until="1206.00"/>
        <stop busStop="-94487924" duration="30.00" until="1284.00"/>
        <param key="completeness" value="0.26"/>
        <param key="name" value="Bus 163: S Adlershof =&gt; Flughafen BER - Terminal 5"/>
    </vehicle>

    <vehicle id="pt_bus_172:0.0" type="pt_bus" depart="17.00" line="172:0" arrival="1315.00">
        <route edges="145586617#0 145586617#1 145586617#2 145586617#3 145586617#4 145586617#5 145586617#6 -145586617#9 -145586617#5 -145586617#4 -145586617#3 145586617#3 145586617#4 145586617#5 145586617#6 -145586617#9 -145586617#5 -145586617#4 -145586617#3 145586617#3 145586617#4 145586617#5 145586617#6 -145586617#9 -145586617#5 -145586617#4 -145586617#3 145586617#3 145586617#4 145586617#5 145586617#6 -145586617#9 -145586617#5 -145586617#4 -145586617#3 -145586617#2 -145586617#1 -145586617#0 -212452093#3 -212452093#2 -212452093#1 -212452093#0 212452093#0 212452093#1 212452093#2 212452093#3 145586617#0 145586617#1 145586617#2 145586617#3 145586617#4 145586617#5 145586617#6"/>
        <stop busStop="664609197" duration="30.00" until="165.00"/>
        <stop busStop="664609199" duration="30.00" until="414.00"/>
        <stop busStop="664609203" duration="30.00" until="634.00"/>
        <stop busStop="664609166" duration="30.00" until="865.00"/>
        <stop busStop="664609173" duration="30.00" until="1161.00"/>
        <param key="completeness" value="0.11"/>
        <param key="name" value="Bus 172: S Lichtenrade/Blohmstraße =&gt; U Rudow"/>
    </vehicle>

    <vehicle id="pt_bus_260:0.1" type="pt_bus" depart="733.00" line="260:0" arrival="1330.00">