<?xml version="1.0" encoding="UTF-8"?>

<!-- generated on 05/02/19 16:58:07 by Eclipse SUMO Version v1_0_1+0593-c54b143026
<configuration xmlns:xsi="http://www.w3.org/2001/XMLSchema-instance" xsi:noNamespaceSchemaLocation="http://sumo.dlr.de/xsd/sumoConfiguration.xsd">

    <input>
        <net-file value="osm.net.xml"/>
        <route-files value="trips.trips.xml"/>
        <additional-files value="osm_stops.add.xml"/>
    </input>

    <output>
        <vehroute-output value="vehroutes.xml"/>
        <stop-output value="stopinfos.xml"/>
    </output>

    <time>
        <begin value="0"/>
    </time>

    <processing>
        <ignore-route-errors value="true"/>
    </processing>

    <routing>
        <device.rerouting.adaptation-interval value="0"/>
    </routing>

    <report>
        <error-log value="trips.trips.xml.errorlog"/>
        <no-step-log value="true"/>
    </report>

</configuration>
-->

<routes xmlns:xsi="http://www.w3.org/2001/XMLSchema-instance" xsi:noNamespaceSchemaLocation="http://sumo.dlr.de/xsd/routes_file.xsd">
    <vehicle id="0_bus_160:0" type="pt_bus" depart="3.00" departLane="1" arrival="141.00">
        <routeDistribution>
            <route replacedOnEdge="" reason="device.rerouting" replacedAtTime="0.00" probability="0" edges="46039050#1 46039050#1 143308587#1 143308587#1"/>
            <route edges="46039050#1 46039050#4 46039050#5 46039050#6 143308587#0 143308587#1"/>
        </routeDistribution>
        <stop busStop="837696524" duration="30.00"/>
        <stop busStop="1560223236" duration="30.00"/>
    </vehicle>

    <vehicle id="2_bus_162:1" type="pt_bus" depart="15.00" departLane="1" arrival="162.00">
        <routeDistribution>
            <route replacedOnEdge="" reason="device.rerouting" replacedAtTime="3.00" probability="0" edges="143308542#1 143308542#1 143308542#6 143308542#16 458921214 458921214"/>
            <route edges="143308542#1 143308542#3 143308542#4 143308542#5 143308542#6 143308542#7 143308542#8 143308542#9 143308542#10 143308542#11 143308542#12 143308542#13 143308542#14 143308542#15"/>
        </routeDistribution>
        <stop busStop="464396487" duration="30.00"/>
        <stop busStop="306982602" duration="30.00"/>
    </vehicle>

    <vehicle id="3_bus_163:0" type="pt_bus" depart="17.00" departLane="1" arrival="247.00">
        <routeDistribution>
            <route replacedOnEdge="" reason="device.rerouting" replacedAtTime="3.00" probability="0" edges="204721579#2 204721579#2 153021549#1 206889086#1 206889086#1"/>
            <route edges="204721579#2 204721579#3 204721579#4 204721579#6 204721579#7 204721579#8 153021549#0 153021549#1 153021549#2 153021549#3 153021549#4 153021549#5 40191606#0 40191606#2 40191606#3 414563781 318210357#0 206889086#1"/>
        </routeDistribution>
        <stop busStop="1383533462" duration="30.00"/>
        <stop busStop="1862990707" duration="30.00"/>
        <stop busStop="1656195133" duration="30.00"/>
    </vehicle>

    <vehicle id="1_bus_162:0" type="pt_bus" depart="15.00" departLane="1" arrival="346.00">
        <routeDistribution>
            <route replacedOnEdge="" reason="device.rerouting" replacedAtTime="3.00" probability="0" edges="206889086#1 206889086#1 143308546#2 143308546#13 143308587#1 143308587#1"/>
            <route edges="206889086#1 152839448 541676219 318210389#0 81639675#1 81639675#2 143308555#1 143308555#2 143308555#3 143308546#1 143308546#2 143308546#3 143308546#4 143308546#5 143308546#6 143308546#7 143308546#8 143308546#9 143308546#10 143308546#11 143308546#12 143308546#13 143308546#14 143308546#15 143308546#16 143308546#17 143308546#18 143308546#19 143308546#20 143308546#21 143308546#23 143308546#24 143308546#25 143308546#26 143308587#0 143308587#1"/>
        </routeDistribution>
        <stop busStop="1656195133" duration="30.00"/>
        <stop busStop="464396566" duration="30.00"/>
        <stop busStop="301331956" duration="30.00"/>
        <stop busStop="1560223236" duration="30.00"/>
    </vehicle>

    <vehicle id="14_light_rail_S45:0" type="pt_light_rail" depart="204.00" departLane="0" arrival="387.00">
        <routeDistribution>
            <route replacedOnEdge="" reason="device.rerouting" replacedAtTime="3.00" probability="0" edges="22917995 22917995 431786577 431786577"/>
            <route edges="22917995 431786577"/>
        </routeDistribution>
        <stop busStop="3508654675" duration="30.00"/>
        <stop busStop="1095078213" duration="30.00"/>
    </vehicle>

    <vehicle id="7_bus_260:0" type="pt_bus" depart="93.00" departLane="1" arrival="398.00">
        <routeDistribution>
            <route replacedOnEdge="" reason="device.rerouting" replacedAtTime="3.00" probability="0" edges="206889086#1 206889086#1 -314415495#14 -314415495#6 -314415495#3 -314415495#3"/>
            <route edges="206889086#1 152839448 541676219 318210389#0 81639675#1 81639675#2 -318210361#3 -318210361#0 -314415495#20 -314415495#18 -314415495#17 -314415495#15 -314415495#14 -314415495#13 -314415495#12 -314415495#11 -314415495#10 -314415495#9 -314415495#8 -314415495#7 -314415495#6 -314415495#5 -314415495#4 -314415495#3"/>
        </routeDistribution>
        <stop busStop="1656195133" duration="30.00"/>
        <stop busStop="-385200818" duration="30.00"/>
        <stop busStop="-1560223790" duration="30.00"/>
        <stop busStop="-1560223555" duration="30.00"/>
    </vehicle>

    <vehicle id="15_light_rail_S45:1" type="pt_light_rail" depart="227.00" departLane="0" arrival="458.00">
        <routeDistribution>
            <route replacedOnEdge="" reason="device.rerouting" replacedAtTime="204.00" probability="0" edges="431786563 431786563 4782367 4782367"/>
            <route edges="431786563 4782366 4782367"/>
        </routeDistribution>
        <stop busStop="30499135" duration="30.00"/>
        <stop busStop="30499115" duration="30.00"/>
    </vehicle>

    <vehicle id="20_bus_260:1" type="pt_bus" depart="353.00" departLane="1" arrival="484.00">
        <routeDistribution>
            <route replacedOnEdge="" reason="device.rerouting" replacedAtTime="204.00" probability="0" edges="314415495#1 314415495#1 314415495#6 314415495#13 458921214 458921214"/>
            <route edges="314415495#1 314415495#3 314415495#4 314415495#5 314415495#6 314415495#7 314415495#8 314415495#9 314415495#10 314415495#11 314415495#12"/>
        </routeDistribution>
        <stop busStop="945142241" duration="30.00"/>
        <stop busStop="664208807" duration="30.00"/>
    </vehicle>

    <vehicle id="5_bus_163:2" type="pt_bus" depart="55.00" departLane="1" arrival="503.00">
        <routeDistribution>
            <route replacedOnEdge="" reason="device.rerouting" replacedAtTime="3.00" probability="0" edges="70130339#0 70130339#0 -318210378#3 458921214 153021553#1 318210360#0 318210360#0"/>
            <route edges="70130339#0 70130339#1 70130339#2 70130339#3 118262353#2 -38915290 -318210378#5 -318210378#4 -318210378#3 -318210378#2 -318210378#0 -318210376 -318210377#1 -318210377#0 -31050360#2 -31050360#1 -31050360#0 143308552#1 143308549#1 143308549#2 52036180#1 52036180#2 52036180#4 72230304#1 461514282#0 461514282#1 204721578#0 204721578#1 153021553#1 318210353 318210351 207086005 318210360#0"/>
        </routeDistribution>
        <stop busStop="2050022025" duration="30.00"/>
        <stop busStop="-945142208" duration="30.00"/>
        <stop busStop="3812676495" duration="30.00"/>
        <stop busStop="1383533461" duration="30.00"/>
    </vehicle>

    <vehicle id="11_tram_61:1" type="pt_tram" depart="133.00" departLane="0" arrival="524.00">
        <routeDistribution>
            <route replacedOnEdge="" reason="device.rerouting" replacedAtTime="3.00" probability="0" edges="179699938#2 179699938#2 206889079#9 220198810#0 158236384#0 158236384#0"/>
            <route edges="179699938#2 179699938#3 179699938#4 206889079#0 206889079#3 206889079#6 206889079#7 206889079#9 206889079#10 206889079#11 206889079#12 220198810#0 220198810#1 220198810#2 220198810#3 220198810#4 220198810#5 158236384#0"/>
        </routeDistribution>
        <stop busStop="1704693444" duration="30.00"/>
        <stop busStop="1704693451" duration="30.00"/>
        <stop busStop="1704693381" duration="30.00"/>
        <stop busStop="1704693369" duration="30.00"/>
    </vehicle>

    <vehicle id="10_tram_61:0" type="pt_tram" depart="132.00" departLane="0" arrival="536.00">
        <routeDistribution>
            <route replacedOnEdge="" reason="device.rerouting" replacedAtTime="3.00" probability="0" edges="158236729#0 158236729#0 220198808#0 220198808#3 218797686#0 -179699939#0 -179699939#0"/>
            <route edges="158236729#0 158236729#1 158236729#2 158236729#3 158236729#4 158236729#5 220198808#0 220198808#1 220198808#2 220198808#3 220198808#4 220198808#6 220198808#9 158236381 220194458#0 220194458#3 458921214 218797686#0 386046454#1 179699937 -179699935 -179699939#0"/>
        </routeDistribution>
        <stop busStop="1704693343" duration="30.00"/>
        <stop busStop="1704693389" duration="30.00"/>
        <stop busStop="1704693457" duration="30.00"/>
        <stop busStop="583899039" duration="30.00"/>
        <stop busStop="-766875150" duration="30.00"/>
    </vehicle>

    <vehicle id="22_light_rail_S8:1" type="pt_light_rail" depart="383.00" departLane="0" arrival="566.00">
        <routeDistribution>
            <route replacedOnEdge="" reason="device.rerouting" replacedAtTime="204.00" probability="0" edges="22917995 22917995 431786577 431786577"/>
            <route edges="22917995 431786577"/>
        </routeDistribution>
        <stop busStop="3508654675" duration="30.00"/>
        <stop busStop="1095078213" duration="30.00"/>
    </vehicle>

    <vehicle id="13_tram_63:1" type="pt_tram" depart="201.00" departLane="0" arrival="567.00">
        <routeDistribution>
            <route replacedOnEdge="" reason="device.rerouting" replacedAtTime="3.00" probability="0" edges="179699938#2 179699938#2 206889079#9 220198810#0 158236384#0 158236384#0"/>
            <route edges="179699938#2 179699938#3 179699938#4 206889079#0 206889079#3 206889079#6 206889079#7 206889079#9 206889079#10 206889079#11 206889079#12 220198810#0 220198810#1 220198810#2 220198810#3 220198810#4 220198810#5 158236384#0"/>
        </routeDistribution>
        <stop busStop="1704693444" duration="30.00"/>
        <stop busStop="1704693451" duration="30.00"/>
        <stop busStop="1704693381" duration="30.00"/>
        <stop busStop="1704693369" duration="30.00"/>
    </vehicle>

    <vehicle id="21_light_rail_S8:0" type="pt_light_rail" depart="362.00" departLane="0" arrival="593.00">
        <routeDistribution>
            <route replacedOnEdge="" reason="device.rerouting" replacedAtTime="204.00" probability="0" edges="431786563 431786563 4782367 4782367"/>
            <route edges="431786563 4782366 4782367"/>
        </routeDistribution>
        <stop busStop="30499135" duration="30.00"/>
        <stop busStop="30499115" duration="30.00"/>
    </vehicle>

    <vehicle id="24_light_rail_S9:0" type="pt_light_rail" depart="430.00" departLane="0" arrival="615.00">
        <routeDistribution>
            <route replacedOnEdge="" reason="device.rerouting" replacedAtTime="204.00" probability="0" edges="22917995 22917995 431786577 431786577"/>
            <route edges="22917995 431786577"/>
        </routeDistribution>
        <stop busStop="3508654675" duration="30.00"/>
        <stop busStop="1095078213" duration="30.00"/>
    </vehicle>

    <vehicle id="31_bus_160:1" type="pt_bus" depart="508.00" departLane="1" arrival="620.00">
        <routeDistribution>
            <route replacedOnEdge="" reason="device.rerouting" replacedAtTime="406.00" probability="0" edges="143308532#2 143308532#2 143308532#5 143308532#5"/>
            <route edges="143308532#2 143308532#5"/>
        </routeDistribution>
        <stop busStop="671564316" duration="30.00"/>
        <stop busStop="837696418" duration="30.00"/>
    </vehicle>

    <vehicle id="12_tram_63:0" type="pt_tram" depart="170.00" departLane="0" arrival="631.00">
        <routeDistribution>
            <route replacedOnEdge="" reason="device.rerouting" replacedAtTime="3.00" probability="0" edges="158236729#0 158236729#0 220198808#0 220198808#3 218797686#0 -179699939#0 -179699939#0"/>
            <route edges="158236729#0 158236729#1 158236729#2 158236729#3 158236729#4 158236729#5 220198808#0 220198808#1 220198808#2 220198808#3 220198808#4 220198808#6 220198808#9 158236381 220194458#0 220194458#3 458921214 218797686#0 386046454#1 179699937 -179699935 -179699939#0"/>
        </routeDistribution>
        <stop busStop="1704693343" duration="30.00"/>
        <stop busStop="1704693389" duration="30.00"/>
        <stop busStop="1704693457" duration="30.00"/>
        <stop busStop="583899039" duration="30.00"/>
        <stop busStop="-766875150" duration="30.00"/>
    </vehicle>

    <vehicle id="25_light_rail_S9:1" type="pt_light_rail" depart="418.00" departLane="0" arrival="649.00">
        <routeDistribution>
            <route replacedOnEdge="" reason="device.rerouting" replacedAtTime="406.00" probability="0" edges="431786563 431786563 4782367 4782367"/>
            <route edges="431786563 4782366 4782367"/>
        </routeDistribution>
        <stop busStop="30499135" duration="30.00"/>
        <stop busStop="30499115" duration="30.00"/>
    </vehicle>

    <vehicle id="26_light_rail_S46:0" type="pt_light_rail" depart="477.00" departLane="0" arrival="664.00">
        <routeDistribution>
            <route replacedOnEdge="" reason="device.rerouting" replacedAtTime="406.00" probability="0" edges="22917995 22917995 431786577 431786577"/>
            <route edges="22917995 431786577"/>
        </routeDistribution>
        <stop busStop="3508654675" duration="30.00"/>
        <stop busStop="1095078213" duration="30.00"/>
    </vehicle>

    <vehicle id="27_light_rail_S46:1" type="pt_light_rail" depart="441.00" departLane="0" arrival="672.00">
        <routeDistribution>
            <route replacedOnEdge="" reason="device.rerouting" replacedAtTime="406.00" probability="0" edges="431786563 431786563 4782367 4782367"/>
            <route edges="431786563 4782366 4782367"/>
        </routeDistribution>
        <stop busStop="30499135" duration="30.00"/>
        <stop busStop="30499115" duration="30.00"/>
    </vehicle>

    <vehicle id="9_bus_164:0" type="pt_bus" depart="131.00" departLane="1" arrival="707.00">
        <routeDistribution>
            <route replacedOnEdge="" reason="device.rerouting" replacedAtTime="3.00" probability="0" edges="-23913524#5 -23913524#5 137534616#0 149611526#0 206889086#1 143308546#2 143308546#13 143308587#1 143308587#1"/>
            <route edges="-23913524#5 -23913524#3 -23913524#2 -23913524#1 -23913524#0 137534616#0 137534616#1 137534616#2 137534616#3 137534616#4 166142951#0 166142951#1 149611526#0 40191606#0 40191606#2 40191606#3 414563781 318210357#0 206889086#1 152839448 541676219 318210389#0 81639675#1 81639675#2 143308555#1 143308555#2 143308555#3 143308546#1 143308546#2 143308546#3 143308546#4 143308546#5 143308546#6 143308546#7 143308546#8 143308546#9 143308546#10 143308546#11 143308546#12 143308546#13 143308546#14 143308546#15 143308546#16 143308546#17 143308546#18 143308546#19 143308546#20 143308546#21 143308546#23 143308546#24 143308546#25 143308546#26 143308587#0 143308587#1"/>
        </routeDistribution>
        <stop busStop="-1383533494" duration="30.00"/>
        <stop busStop="1383533577" duration="30.00"/>
        <stop busStop="1383533575" duration="30.00"/>
        <stop busStop="1656195133" duration="30.00"/>
        <stop busStop="464396566" duration="30.00"/>
        <stop busStop="301331956" duration="30.00"/>
        <stop busStop="1560223236" duration="30.00"/>
    </vehicle>

    <vehicle id="28_light_rail_S85:0" type="pt_light_rail" depart="524.00" departLane="0" arrival="713.00">
        <routeDistribution>
            <route replacedOnEdge="" reason="device.rerouting" replacedAtTime="406.00" probability="0" edges="22917995 22917995 431786577 431786577"/>
            <route edges="22917995 431786577"/>
        </routeDistribution>
        <stop busStop="3508654675" duration="30.00"/>
        <stop busStop="1095078213" duration="30.00"/>
    </vehicle>

    <vehicle id="29_light_rail_S85:1" type="pt_light_rail" depart="484.00" departLane="0" arrival="725.00">
        <routeDistribution>
            <route replacedOnEdge="" reason="device.rerouting" replacedAtTime="406.00" probability="0" edges="431786563 431786563 4782367 4782367"/>
            <route edges="431786563 4782366 4782367"/>
        </routeDistribution>
        <stop busStop="30499135" duration="30.00"/>
        <stop busStop="30499115" duration="30.00"/>
    </vehicle>

    <vehicle id="23_bus_164:1" type="pt_bus" depart="389.00" departLane="1" arrival="900.00">
        <routeDistribution>
            <route replacedOnEdge="" reason="device.rerouting" replacedAtTime="204.00" probability="0" edges="143308542#1 143308542#1 143308542#6 143308542#16 458921214 24152326#0 -137534616#0 23913524#5 23913524#5"/>
            <route edges="143308542#1 143308542#3 143308542#4 143308542#5 143308542#6 143308542#7 143308542#8 143308542#9 143308542#10 143308542#11 143308542#12 143308542#13 143308542#14 143308542#15 143308542#16 143308542#17 143308552#1 143308549#1 143308549#2 52036180#1 52036180#2 52036180#4 -45875465#0 152839428 24152326#0 24152326#1 23925124#0 23925124#1 23925124#2 -166142951#1 -166142951#0 -137534616#4 -137534616#3 -137534616#2 -137534616#1 -137534616#0 23913524#0 23913524#1 23913524#2 23913524#3 23913524#5"/>
        </routeDistribution>
        <stop busStop="464396487" duration="30.00"/>
        <stop busStop="306982602" duration="30.00"/>
        <stop busStop="464396589" duration="30.00"/>
        <stop busStop="1383533459" duration="30.00"/>
        <stop busStop="-1383533578" duration="30.00"/>
        <stop busStop="1383533492" duration="30.00"/>
    </vehicle>

    <vehicle id="30_bus_163:3" type="pt_bus" depart="485.00" departLane="1" arrival="926.00">
        <routeDistribution>
            <route replacedOnEdge="" reason="device.rerouting" replacedAtTime="406.00" probability="0" edges="204721579#2 204721579#2 153021549#1 206889086#1 318210378#4 231626692#1 231626692#1"/>
            <route edges="204721579#2 204721579#3 204721579#4 204721579#6 204721579#7 204721579#8 153021549#0 153021549#1 153021549#2 153021549#3 153021549#4 153021549#5 40191606#0 40191606#2 40191606#3 414563781 318210357#0 206889086#1 152839448 541676219 318210389#0 81639675#1 81639675#2 143308555#1 143308555#2 143308555#3 31050360#0 31050360#1 31050360#2 318210377#0 318210377#1 318210376 318210378#0 318210378#2 318210378#3 318210378#4 318210378#5 38915290 8025704#0 231626692#0 231626692#1"/>
        </routeDistribution>
        <stop busStop="1383533462" duration="30.00"/>
        <stop busStop="1862990707" duration="30.00"/>
        <stop busStop="1656195133" duration="30.00"/>
        <stop busStop="945142098" duration="30.00"/>
        <stop busStop="2050022029" duration="30.00"/>
    </vehicle>

    <vehicle id="34_bus_162:3" type="pt_bus" depart="583.00" departLane="1" arrival="1180.00">
        <routeDistribution>
            <route replacedOnEdge="" reason="device.rerouting" replacedAtTime="406.00" probability="0" edges="143308542#1 143308542#1 143308542#6 143308542#16 458921214 24152326#0 -137534616#0 23913524#5 23913524#5"/>
            <route edges="143308542#1 143308542#3 143308542#4 143308542#5 143308542#6 143308542#7 143308542#8 143308542#9 143308542#10 143308542#11 143308542#12 143308542#13 143308542#14 143308542#15 143308542#16 143308542#17 143308552#1 143308549#1 143308549#2 52036180#1 52036180#2 52036180#4 -45875465#0 152839428 24152326#0 24152326#1 23925124#0 23925124#1 23925124#2 -166142951#1 -166142951#0 -137534616#4 -137534616#3 -137534616#2 -137534616#1 -137534616#0 23913524#0 23913524#1 23913524#2 23913524#3 23913524#5"/>
        </routeDistribution>
        <stop busStop="464396487" duration="30.00"/>
        <stop busStop="306982602" duration="30.00"/>
        <stop busStop="464396589" duration="30.00"/>
        <stop busStop="1383533459" duration="30.00"/>
        <stop busStop="-1383533578" duration="30.00"/>
        <stop busStop="1383533492" duration="30.00"/>
    </vehicle>

    <vehicle id="33_bus_162:2" type="pt_bus" depart="574.00" departLane="1" arrival="1193.00">
        <routeDistribution>
            <route replacedOnEdge="" reason="device.rerouting" replacedAtTime="406.00" probability="0" edges="-23913524#5 -23913524#5 137534616#0 149611526#0 206889086#1 143308546#2 143308546#13 143308587#1 143308587#1"/>
            <route edges="-23913524#5 -23913524#3 -23913524#2 -23913524#1 -23913524#0 137534616#0 137534616#1 137534616#2 137534616#3 137534616#4 166142951#0 166142951#1 149611526#0 40191606#0 40191606#2 40191606#3 414563781 318210357#0 206889086#1 152839448 541676219 318210389#0 81639675#1 81639675#2 143308555#1 143308555#2 143308555#3 143308546#1 143308546#2 143308546#3 143308546#4 143308546#5 143308546#6 143308546#7 143308546#8 143308546#9 143308546#10 143308546#11 143308546#12 143308546#13 143308546#14 143308546#15 143308546#16 143308546#17 143308546#18 143308546#19 143308546#20 143308546#21 143308546#23 143308546#24 143308546#25 143308546#26 143308587#0 143308587#1"/>
        </routeDistribution>
        <stop busStop="-1383533494" duration="30.00"/>
        <stop busStop="1383533577" duration="30.00"/>
        <stop busStop="1383533575" duration="30.00"/>
        <stop busStop="1656195133" duration="30.00"/>
        <stop busStop="464396566" duration="30.00"/>
        <stop busStop="301331956" duration="30.00"/>
        <stop busStop="1560223236" duration="30.00"/>
    </vehicle>

</routes>
