<?xml version="1.0" encoding="UTF-8"?>

<!-- generated on 10.05.2019 09:18:42 by Eclipse SUMO GUI Version v1_2_0+0280-89bb845180c
<configuration xmlns:xsi="http://www.w3.org/2001/XMLSchema-instance" xsi:noNamespaceSchemaLocation="http://sumo.dlr.de/xsd/sumoConfiguration.xsd">

    <input>
        <net-file value="D:\erdm_ja\sip-svn-trunk\papers\DLR\SUMO_Conference2019\tutorial\5_parking.final\osm.net.xml"/>
        <route-files value="D:\erdm_ja\sip-svn-trunk\papers\DLR\SUMO_Conference2019\tutorial\5_parking.final\osm_pt.rou.xml,D:\erdm_ja\sip-svn-trunk\papers\DLR\SUMO_Conference2019\tutorial\5_parking.final\osm.passenger.trips.xml,D:\erdm_ja\sip-svn-trunk\papers\DLR\SUMO_Conference2019\tutorial\5_parking.final\osm.pedestrian.rou.xml,D:\erdm_ja\sip-svn-trunk\papers\DLR\SUMO_Conference2019\tutorial\5_parking.final\custom.rou.xml"/>
        <additional-files value="D:\erdm_ja\sip-svn-trunk\papers\DLR\SUMO_Conference2019\tutorial\5_parking.final\osm.poly.xml,D:\erdm_ja\sip-svn-trunk\papers\DLR\SUMO_Conference2019\tutorial\5_parking.final\osm_stops.add.xml,D:\erdm_ja\sip-svn-trunk\papers\DLR\SUMO_Conference2019\tutorial\5_parking.final\edgedata.add.xml,D:\erdm_ja\sip-svn-trunk\papers\DLR\SUMO_Conference2019\tutorial\5_parking.final\parking.add.xml,D:\erdm_ja\sip-svn-trunk\papers\DLR\SUMO_Conference2019\tutorial\5_parking.final\rerouter.add.xml"/>
    </input>

    <processing>
        <ignore-route-errors value="true"/>
    </processing>

    <routing>
        <device.rerouting.adaptation-steps value="180"/>
    </routing>

    <report>
        <verbose value="true"/>
        <duration-log.statistics value="true"/>
        <no-step-log value="true"/>
    </report>

    <gui_only>
        <gui-settings-file value="D:\erdm_ja\sip-svn-trunk\papers\DLR\SUMO_Conference2019\tutorial\5_parking.final\osm.view.xml"/>
    </gui_only>

</configuration>
-->

<meandata xmlns:xsi="http://www.w3.org/2001/XMLSchema-instance" xsi:noNamespaceSchemaLocation="http://sumo.dlr.de/xsd/meandata_file.xsd">
    <interval begin="0.00" end="491.00" id="pedData">
        <edge id="-114024899" sampledSeconds="0.00" departed="0" arrived="0" entered="0" left="0" laneChangedFrom="0" laneChangedTo="0"/>
        <edge id="-114024901" sampledSeconds="95.00" traveltime="95.00" overlapTraveltime="95.15" density="1.41" occupancy="0.00" waitingTime="0.00" speed="1.44" departed="1" arrived="0" entered="0" left="1" laneChangedFrom="0" laneChangedTo="0"/>
        <edge id="-114024903#0" sampledSeconds="0.00" departed="0" arrived="0" entered="0" left="0" laneChangedFrom="0" laneChangedTo="0"/>
        <edge id="-114024903#1" sampledSeconds="0.00" departed="0" arrived="0" entered="0" left="0" laneChangedFrom="0" laneChangedTo="0"/>
        <edge id="-114024903#2" sampledSeconds="1.00" traveltime="1.00" overlapTraveltime="1.00" density="0.03" occupancy="0.00" waitingTime="0.00" speed="72.78" departed="1" arrived="0" entered="0" left="1" laneChangedFrom="0" laneChangedTo="0"/>
        <edge id="-114024903#3" sampledSeconds="0.00" departed="0" arrived="0" entered="0" left="0" laneChangedFrom="0" laneChangedTo="0"/>
        <edge id="-114024903#4" sampledSeconds="1.00" traveltime="1.00" overlapTraveltime="1.02" density="0.20" occupancy="0.00" waitingTime="0.00" speed="10.15" departed="1" arrived="0" entered="0" left="1" laneChangedFrom="0" laneChangedTo="0"/>
        <edge id="-114024903#5" sampledSeconds="6.00" traveltime="6.00" overlapTraveltime="6.13" density="1.26" occupancy="0.00" waitingTime="0.00" speed="1.62" departed="0" arrived="0" entered="1" left="1" laneChangedFrom="0" laneChangedTo="0"/>
        <edge id="-114024903#6" sampledSeconds="2.00" traveltime="2.00" overlapTraveltime="2.14" density="1.34" occupancy="0.00" waitingTime="0.00" speed="1.52" departed="0" arrived="0" entered="1" left="1" laneChangedFrom="0" laneChangedTo="0"/>
        <edge id="-114024904" sampledSeconds="1.00" traveltime="1.00" overlapTraveltime="1.01" density="0.06" occupancy="0.00" waitingTime="0.00" speed="36.35" departed="1" arrived="0" entered="0" left="1" laneChangedFrom="0" laneChangedTo="0"/>
        <edge id="-114024905" sampledSeconds="0.00" departed="0" arrived="0" entered="0" left="0" laneChangedFrom="0" laneChangedTo="0"/>
        <edge id="-114024906" sampledSeconds="27.00" traveltime="27.00" overlapTraveltime="27.16" density="1.47" occupancy="0.00" waitingTime="0.00" speed="1.38" departed="0" arrived="0" entered="1" left="1" laneChangedFrom="0" laneChangedTo="0"/>
        <edge id="-114207225" sampledSeconds="0.00" departed="0" arrived="0" entered="0" left="0" laneChangedFrom="0" laneChangedTo="0"/>
        <edge id="-114207227" sampledSeconds="0.00" departed="0" arrived="0" entered="0" left="0" laneChangedFrom="0" laneChangedTo="0"/>
        <edge id="-114207229" sampledSeconds="0.00" departed="0" arrived="0" entered="0" left="0" laneChangedFrom="0" laneChangedTo="0"/>
        <edge id="-114207232#0" sampledSeconds="0.00" departed="0" arrived="0" entered="0" left="0" laneChangedFrom="0" laneChangedTo="0"/>
        <edge id="-114692703#0" sampledSeconds="0.00" departed="0" arrived="0" entered="0" left="0" laneChangedFrom="0" laneChangedTo="0"/>
        <edge id="-114949101#0" sampledSeconds="0.00" departed="0" arrived="0" entered="0" left="0" laneChangedFrom="0" laneChangedTo="0"/>
        <edge id="-114952399#0" sampledSeconds="0.00" departed="0" arrived="0" entered="0" left="0" laneChangedFrom="0" laneChangedTo="0"/>
        <edge id="-114952399#1" sampledSeconds="0.00" departed="0" arrived="0" entered="0" left="0" laneChangedFrom="0" laneChangedTo="0"/>
        <edge id="-115227681" sampledSeconds="0.00" departed="0" arrived="0" entered="0" left="0" laneChangedFrom="0" laneChangedTo="0"/>
        <edge id="-115227682#0" sampledSeconds="0.00" departed="0" arrived="0" entered="0" left="0" laneChangedFrom="0" laneChangedTo="0"/>
        <edge id="-115227682#1" sampledSeconds="0.00" departed="0" arrived="0" entered="0" left="0" laneChangedFrom="0" laneChangedTo="0"/>
        <edge id="-115466410#0" sampledSeconds="0.00" departed="0" arrived="0" entered="0" left="0" laneChangedFrom="0" laneChangedTo="0"/>
        <edge id="-115466410#1" sampledSeconds="1.00" traveltime="1.00" overlapTraveltime="1.01" density="0.11" occupancy="0.00" waitingTime="0.00" speed="19.38" departed="1" arrived="0" entered="0" left="1" laneChangedFrom="0" laneChangedTo="0"/>
        <edge id="-116342915" sampledSeconds="0.00" departed="0" arrived="1" entered="1" left="0" laneChangedFrom="0" laneChangedTo="0"/>
        <edge id="-116391654#1" sampledSeconds="9.00" traveltime="9.00" overlapTraveltime="9.18" density="1.68" occupancy="0.00" waitingTime="0.00" speed="1.21" departed="1" arrived="0" entered="0" left="1" laneChangedFrom="0" laneChangedTo="0"/>
        <edge id="-122666828#0" sampledSeconds="0.00" departed="0" arrived="0" entered="0" left="0" laneChangedFrom="0" laneChangedTo="0"/>
        <edge id="-122666828#1" sampledSeconds="0.00" departed="0" arrived="0" entered="0" left="0" laneChangedFrom="0" laneChangedTo="0"/>
        <edge id="-122666828#2" sampledSeconds="1.00" traveltime="1.00" overlapTraveltime="1.01" density="0.08" occupancy="0.00" waitingTime="0.00" speed="24.10" departed="1" arrived="0" entered="0" left="1" laneChangedFrom="0" laneChangedTo="0"/>
        <edge id="-122868966" sampledSeconds="0.00" departed="0" arrived="0" entered="0" left="0" laneChangedFrom="0" laneChangedTo="0"/>
        <edge id="-125399001#0" sampledSeconds="75.00" traveltime="75.00" overlapTraveltime="75.21" density="1.96" occupancy="0.00" waitingTime="0.00" speed="1.04" departed="0" arrived="0" entered="1" left="1" laneChangedFrom="0" laneChangedTo="0"/>
        <edge id="-125399001#1" sampledSeconds="21.00" traveltime="21.00" overlapTraveltime="21.20" density="1.93" occupancy="0.00" waitingTime="0.00" speed="1.05" departed="0" arrived="0" entered="2" left="1" laneChangedFrom="0" laneChangedTo="0"/>
        <edge id="-125399001#2" sampledSeconds="122.00" traveltime="122.00" overlapTraveltime="122.14" density="1.35" occupancy="0.00" waitingTime="0.00" speed="1.51" departed="0" arrived="0" entered="1" left="1" laneChangedFrom="0" laneChangedTo="0"/>
        <edge id="-125399001#3" sampledSeconds="0.00" departed="0" arrived="0" entered="0" left="0" laneChangedFrom="0" laneChangedTo="0"/>
        <edge id="-125399002#0" sampledSeconds="0.00" departed="0" arrived="0" entered="0" left="0" laneChangedFrom="0" laneChangedTo="0"/>
        <edge id="-125399002#1" sampledSeconds="5.00" traveltime="5.00" overlapTraveltime="5.20" density="1.87" occupancy="0.00" waitingTime="0.00" speed="1.09" departed="1" arrived="0" entered="0" left="1" laneChangedFrom="0" laneChangedTo="0"/>
        <edge id="-128643749" sampledSeconds="0.00" departed="0" arrived="0" entered="0" left="0" laneChangedFrom="0" laneChangedTo="0"/>
        <edge id="-133858189" sampledSeconds="0.00" departed="0" arrived="0" entered="0" left="0" laneChangedFrom="0" laneChangedTo="0"/>
        <edge id="-133858466" sampledSeconds="5.00" traveltime="5.00" overlapTraveltime="5.18" density="1.70" occupancy="0.00" waitingTime="0.00" speed="1.20" departed="0" arrived="0" entered="1" left="1" laneChangedFrom="0" laneChangedTo="0"/>
        <edge id="-133858467#0" sampledSeconds="22.00" traveltime="22.00" overlapTraveltime="22.16" density="1.56" occupancy="0.00" waitingTime="0.00" speed="1.30" departed="0" arrived="0" entered="1" left="1" laneChangedFrom="0" laneChangedTo="0"/>
        <edge id="-133858467#1" sampledSeconds="3.00" traveltime="3.00" overlapTraveltime="3.16" density="1.49" occupancy="0.00" waitingTime="0.00" speed="1.36" departed="0" arrived="0" entered="1" left="1" laneChangedFrom="0" laneChangedTo="0"/>
        <edge id="-133858467#2" sampledSeconds="0.00" departed="0" arrived="0" entered="0" left="0" laneChangedFrom="0" laneChangedTo="0"/>
        <edge id="-137482783#0" sampledSeconds="0.00" departed="0" arrived="0" entered="0" left="0" laneChangedFrom="0" laneChangedTo="0"/>
        <edge id="-137482783#1" sampledSeconds="0.00" departed="0" arrived="0" entered="0" left="0" laneChangedFrom="0" laneChangedTo="0"/>
        <edge id="-137483014#0" sampledSeconds="74.00" traveltime="74.00" overlapTraveltime="74.16" density="1.48" occupancy="0.00" waitingTime="0.00" speed="1.38" departed="0" arrived="0" entered="2" left="1" laneChangedFrom="0" laneChangedTo="0"/>
        <edge id="-137483015#0" sampledSeconds="56.00" traveltime="56.00" overlapTraveltime="56.15" density="1.46" occupancy="0.00" waitingTime="0.00" speed="1.40" departed="0" arrived="0" entered="1" left="1" laneChangedFrom="0" laneChangedTo="0"/>
        <edge id="-137483015#2" sampledSeconds="17.00" traveltime="4.25" overlapTraveltime="4.41" density="6.00" occupancy="0.00" waitingTime="0.00" speed="1.36" departed="0" arrived="0" entered="4" left="4" laneChangedFrom="0" laneChangedTo="0"/>
        <edge id="-137483015#3" sampledSeconds="15.00" traveltime="7.50" overlapTraveltime="7.65" density="2.81" occupancy="0.00" waitingTime="0.00" speed="1.45" departed="0" arrived="0" entered="2" left="2" laneChangedFrom="0" laneChangedTo="0"/>
        <edge id="-137534616#0" sampledSeconds="0.00" departed="0" arrived="0" entered="0" left="0" laneChangedFrom="0" laneChangedTo="0"/>
        <edge id="-137534616#1" sampledSeconds="72.00" traveltime="36.00" overlapTraveltime="36.08" density="1.57" occupancy="0.00" waitingTime="0.00" speed="2.59" departed="2" arrived="0" entered="0" left="2" laneChangedFrom="0" laneChangedTo="0"/>
        <edge id="-137534616#2" sampledSeconds="54.00" traveltime="54.00" overlapTraveltime="54.16" density="1.51" occupancy="0.00" waitingTime="0.00" speed="1.35" departed="0" arrived="0" entered="1" left="1" laneChangedFrom="0" laneChangedTo="0"/>
        <edge id="-137534616#3" sampledSeconds="0.00" departed="0" arrived="0" entered="0" left="0" laneChangedFrom="0" laneChangedTo="0"/>
        <edge id="-137534616#4" sampledSeconds="1.00" traveltime="1.00" overlapTraveltime="1.01" density="0.11" occupancy="0.00" waitingTime="0.00" speed="18.68" departed="1" arrived="0" entered="0" left="1" laneChangedFrom="0" laneChangedTo="0"/>
        <edge id="-138628388" sampledSeconds="0.00" departed="0" arrived="0" entered="0" left="0" laneChangedFrom="0" laneChangedTo="0"/>
        <edge id="-140964924#0" sampledSeconds="0.00" departed="0" arrived="0" entered="0" left="0" laneChangedFrom="0" laneChangedTo="0"/>
        <edge id="-140964924#1" sampledSeconds="0.00" departed="0" arrived="0" entered="0" left="0" laneChangedFrom="0" laneChangedTo="0"/>
        <edge id="-142575655#0" sampledSeconds="0.00" departed="0" arrived="0" entered="0" left="0" laneChangedFrom="0" laneChangedTo="0"/>
        <edge id="-142575655#1" sampledSeconds="0.00" departed="0" arrived="0" entered="0" left="0" laneChangedFrom="0" laneChangedTo="0"/>
        <edge id="-142575655#4" sampledSeconds="218.00" traveltime="43.60" overlapTraveltime="43.75" density="7.17" occupancy="0.00" waitingTime="0.00" speed="1.42" departed="0" arrived="0" entered="6" left="5" laneChangedFrom="0" laneChangedTo="0"/>
        <edge id="-142575655#5" sampledSeconds="61.00" traveltime="12.20" overlapTraveltime="12.35" density="7.31" occupancy="0.00" waitingTime="0.00" speed="1.39" departed="0" arrived="0" entered="5" left="5" laneChangedFrom="0" laneChangedTo="0"/>
        <edge id="-142575655#6" sampledSeconds="68.00" traveltime="11.33" overlapTraveltime="11.46" density="7.22" occupancy="0.00" waitingTime="0.00" speed="1.69" departed="1" arrived="0" entered="5" left="6" laneChangedFrom="0" laneChangedTo="0"/>
        <edge id="-142575655#7" sampledSeconds="226.00" traveltime="56.50" overlapTraveltime="56.65" density="5.82" occupancy="0.00" waitingTime="0.00" speed="1.40" departed="0" arrived="0" entered="4" left="4" laneChangedFrom="0" laneChangedTo="0"/>
        <edge id="-142575655#8" sampledSeconds="45.00" traveltime="15.00" overlapTraveltime="15.15" density="4.35" occupancy="0.00" waitingTime="0.00" speed="1.41" departed="0" arrived="0" entered="3" left="3" laneChangedFrom="0" laneChangedTo="0"/>
        <edge id="-142575655#9" sampledSeconds="34.00" traveltime="17.00" overlapTraveltime="17.09" density="1.63" occupancy="0.00" waitingTime="0.00" speed="2.50" departed="1" arrived="0" entered="4" left="2" laneChangedFrom="0" laneChangedTo="0"/>
        <edge id="-142575656#0" sampledSeconds="216.00" traveltime="36.00" overlapTraveltime="36.14" density="7.82" occupancy="0.00" waitingTime="0.00" speed="1.56" departed="1" arrived="0" entered="5" left="6" laneChangedFrom="0" laneChangedTo="0"/>
        <edge id="-142575656#1" sampledSeconds="27.00" traveltime="3.86" overlapTraveltime="4.03" density="11.20" occupancy="0.00" waitingTime="0.00" speed="1.27" departed="0" arrived="0" entered="8" left="7" laneChangedFrom="0" laneChangedTo="0"/>
        <edge id="-142575656#10" sampledSeconds="144.00" traveltime="11.08" overlapTraveltime="11.23" density="18.39" occupancy="0.00" waitingTime="0.00" speed="1.44" departed="0" arrived="1" entered="13" left="12" laneChangedFrom="0" laneChangedTo="0"/>
        <edge id="-142575656#11" sampledSeconds="191.00" traveltime="15.92" overlapTraveltime="16.07" density="17.79" occupancy="0.00" waitingTime="0.00" speed="1.37" departed="0" arrived="0" entered="13" left="12" laneChangedFrom="0" laneChangedTo="0"/>
        <edge id="-142575656#12" sampledSeconds="90.00" traveltime="9.00" overlapTraveltime="9.16" density="14.83" occupancy="0.00" waitingTime="0.00" speed="1.37" departed="1" arrived="0" entered="11" left="10" laneChangedFrom="0" laneChangedTo="0"/>
        <edge id="-142575656#14" sampledSeconds="180.00" traveltime="25.71" overlapTraveltime="25.87" density="10.36" occupancy="0.00" waitingTime="0.00" speed="1.38" departed="1" arrived="0" entered="6" left="7" laneChangedFrom="0" laneChangedTo="0"/>
        <edge id="-142575656#15" sampledSeconds="162.00" traveltime="20.25" overlapTraveltime="20.41" density="12.10" occupancy="0.00" waitingTime="0.00" speed="1.35" departed="0" arrived="0" entered="9" left="8" laneChangedFrom="0" laneChangedTo="0"/>
        <edge id="-142575656#3" sampledSeconds="99.00" traveltime="33.00" overlapTraveltime="33.15" density="4.40" occupancy="0.00" waitingTime="0.00" speed="1.39" departed="0" arrived="0" entered="4" left="3" laneChangedFrom="0" laneChangedTo="0"/>
        <edge id="-142575656#4" sampledSeconds="28.00" traveltime="5.60" overlapTraveltime="5.75" density="7.27" occupancy="0.00" waitingTime="0.00" speed="1.40" departed="0" arrived="0" entered="5" left="5" laneChangedFrom="0" laneChangedTo="0"/>
        <edge id="-142575656#5" sampledSeconds="66.00" traveltime="9.43" overlapTraveltime="9.57" density="9.47" occupancy="0.00" waitingTime="0.00" speed="1.50" departed="0" arrived="1" entered="7" left="6" laneChangedFrom="0" laneChangedTo="0"/>
        <edge id="-142575656#6" sampledSeconds="250.00" traveltime="35.71" overlapTraveltime="35.87" density="10.20" occupancy="0.00" waitingTime="0.00" speed="1.40" departed="0" arrived="0" entered="8" left="7" laneChangedFrom="0" laneChangedTo="0"/>
        <edge id="-142575656#7" sampledSeconds="470.00" traveltime="39.17" overlapTraveltime="39.32" density="17.95" occupancy="0.00" waitingTime="0.00" speed="1.36" departed="0" arrived="0" entered="12" left="12" laneChangedFrom="0" laneChangedTo="0"/>
        <edge id="-142575656#8" sampledSeconds="162.00" traveltime="13.50" overlapTraveltime="13.65" density="17.16" occupancy="0.00" waitingTime="0.00" speed="1.42" departed="0" arrived="1" entered="13" left="11" laneChangedFrom="0" laneChangedTo="0"/>
        <edge id="-142575656#9" sampledSeconds="38.00" traveltime="3.17" overlapTraveltime="3.32" density="17.71" occupancy="0.00" waitingTime="0.00" speed="1.38" departed="0" arrived="0" entered="12" left="12" laneChangedFrom="0" laneChangedTo="0"/>
        <edge id="-142575657#0" sampledSeconds="0.00" departed="0" arrived="0" entered="0" left="0" laneChangedFrom="0" laneChangedTo="0"/>
        <edge id="-142575657#1" sampledSeconds="0.00" departed="0" arrived="0" entered="0" left="0" laneChangedFrom="0" laneChangedTo="0"/>
        <edge id="-142575657#2" sampledSeconds="0.00" departed="0" arrived="0" entered="0" left="0" laneChangedFrom="0" laneChangedTo="0"/>
        <edge id="-142575657#3" sampledSeconds="0.00" departed="0" arrived="0" entered="0" left="0" laneChangedFrom="0" laneChangedTo="0"/>
        <edge id="-142575657#4" sampledSeconds="0.00" departed="0" arrived="0" entered="0" left="0" laneChangedFrom="0" laneChangedTo="0"/>
        <edge id="-142575658#0" sampledSeconds="0.00" departed="0" arrived="0" entered="0" left="0" laneChangedFrom="0" laneChangedTo="0"/>
        <edge id="-142575658#1" sampledSeconds="0.00" departed="0" arrived="0" entered="0" left="0" laneChangedFrom="0" laneChangedTo="0"/>
        <edge id="-142575658#2" sampledSeconds="0.00" departed="0" arrived="0" entered="0" left="0" laneChangedFrom="0" laneChangedTo="0"/>
        <edge id="-142575659#0" sampledSeconds="0.00" departed="0" arrived="0" entered="0" left="0" laneChangedFrom="0" laneChangedTo="0"/>
        <edge id="-142575659#1" sampledSeconds="0.00" departed="0" arrived="0" entered="0" left="0" laneChangedFrom="0" laneChangedTo="0"/>
        <edge id="-142575659#2" sampledSeconds="0.00" departed="0" arrived="0" entered="0" left="0" laneChangedFrom="0" laneChangedTo="0"/>
        <edge id="-142575661#0" sampledSeconds="22.00" traveltime="11.00" overlapTraveltime="11.16" density="2.94" occupancy="0.00" waitingTime="0.00" speed="1.38" departed="0" arrived="0" entered="2" left="2" laneChangedFrom="0" laneChangedTo="0"/>
        <edge id="-142575661#1" sampledSeconds="28.00" traveltime="14.00" overlapTraveltime="14.16" density="2.96" occupancy="0.00" waitingTime="0.00" speed="1.38" departed="0" arrived="0" entered="2" left="2" laneChangedFrom="0" laneChangedTo="0"/>
        <edge id="-142575661#2" sampledSeconds="112.00" traveltime="112.00" overlapTraveltime="112.16" density="1.50" occupancy="0.00" waitingTime="0.00" speed="1.36" departed="0" arrived="0" entered="1" left="1" laneChangedFrom="0" laneChangedTo="0"/>
        <edge id="-142575661#3" sampledSeconds="0.00" departed="0" arrived="0" entered="0" left="0" laneChangedFrom="0" laneChangedTo="0"/>
        <edge id="-142575661#4" sampledSeconds="0.00" departed="0" arrived="0" entered="0" left="0" laneChangedFrom="0" laneChangedTo="0"/>
        <edge id="-142575662#0" sampledSeconds="0.00" departed="0" arrived="0" entered="0" left="0" laneChangedFrom="0" laneChangedTo="0"/>
        <edge id="-142575662#1" sampledSeconds="0.00" departed="0" arrived="0" entered="0" left="0" laneChangedFrom="0" laneChangedTo="0"/>
        <edge id="-142575662#2" sampledSeconds="0.00" departed="0" arrived="0" entered="0" left="0" laneChangedFrom="0" laneChangedTo="0"/>
        <edge id="-142575672#2" sampledSeconds="19.00" traveltime="19.00" overlapTraveltime="19.16" density="1.53" occupancy="0.00" waitingTime="0.00" speed="1.33" departed="0" arrived="0" entered="1" left="1" laneChangedFrom="0" laneChangedTo="0"/>
        <edge id="-142575673" sampledSeconds="1.00" traveltime="1.00" overlapTraveltime="1.00" density="0.02" occupancy="0.00" waitingTime="0.00" speed="106.96" departed="1" arrived="0" entered="0" left="1" laneChangedFrom="0" laneChangedTo="0"/>
        <edge id="-142575674#0" sampledSeconds="1.00" traveltime="1.00" overlapTraveltime="1.47" density="4.43" occupancy="0.00" waitingTime="0.00" speed="0.46" departed="0" arrived="0" entered="1" left="1" laneChangedFrom="0" laneChangedTo="0"/>
        <edge id="-142575674#1" sampledSeconds="53.00" traveltime="53.00" overlapTraveltime="53.15" density="1.42" occupancy="0.00" waitingTime="0.00" speed="1.44" departed="0" arrived="0" entered="1" left="1" laneChangedFrom="0" laneChangedTo="0"/>
        <edge id="-142575674#4" sampledSeconds="0.00" departed="0" arrived="0" entered="0" left="0" laneChangedFrom="0" laneChangedTo="0"/>
        <edge id="-142575677#0" sampledSeconds="0.00" departed="0" arrived="0" entered="0" left="0" laneChangedFrom="0" laneChangedTo="0"/>
        <edge id="-142575677#1" sampledSeconds="0.00" departed="0" arrived="0" entered="0" left="0" laneChangedFrom="0" laneChangedTo="0"/>
        <edge id="-142575677#2" sampledSeconds="0.00" departed="0" arrived="0" entered="0" left="0" laneChangedFrom="0" laneChangedTo="0"/>
        <edge id="-142575677#3" sampledSeconds="24.00" traveltime="24.00" overlapTraveltime="24.13" density="1.27" occupancy="0.00" waitingTime="0.00" speed="1.60" departed="0" arrived="0" entered="1" left="1" laneChangedFrom="0" laneChangedTo="0"/>
        <edge id="-142575684#0" sampledSeconds="1.00" traveltime="1.00" overlapTraveltime="1.01" density="0.10" occupancy="0.00" waitingTime="0.00" speed="19.75" departed="1" arrived="0" entered="0" left="1" laneChangedFrom="0" laneChangedTo="0"/>
        <edge id="-142575684#1" sampledSeconds="9.00" traveltime="9.00" overlapTraveltime="9.17" density="1.62" occupancy="0.00" waitingTime="0.00" speed="1.25" departed="1" arrived="0" entered="0" left="1" laneChangedFrom="0" laneChangedTo="0"/>
        <edge id="-142575684#4" sampledSeconds="0.00" departed="0" arrived="0" entered="0" left="0" laneChangedFrom="0" laneChangedTo="0"/>
        <edge id="-142575684#5" sampledSeconds="0.00" departed="0" arrived="0" entered="0" left="0" laneChangedFrom="0" laneChangedTo="0"/>
        <edge id="-142575687#0" sampledSeconds="0.00" departed="0" arrived="0" entered="0" left="0" laneChangedFrom="0" laneChangedTo="0"/>
        <edge id="-142575687#1" sampledSeconds="0.00" departed="0" arrived="0" entered="0" left="0" laneChangedFrom="0" laneChangedTo="0"/>
        <edge id="-142575688#0" sampledSeconds="92.00" traveltime="30.67" overlapTraveltime="30.82" density="4.29" occupancy="0.00" waitingTime="0.00" speed="1.43" departed="0" arrived="0" entered="3" left="3" laneChangedFrom="0" laneChangedTo="0"/>
        <edge id="-142575688#1" sampledSeconds="82.00" traveltime="27.33" overlapTraveltime="27.48" density="4.23" occupancy="0.00" waitingTime="0.00" speed="1.44" departed="0" arrived="0" entered="4" left="3" laneChangedFrom="0" laneChangedTo="0"/>
        <edge id="-142575688#10" sampledSeconds="15.00" traveltime="5.00" overlapTraveltime="5.16" density="4.64" occupancy="0.00" waitingTime="0.00" speed="1.32" departed="0" arrived="0" entered="3" left="3" laneChangedFrom="0" laneChangedTo="0"/>
        <edge id="-142575688#12" sampledSeconds="1.00" traveltime="1.00" overlapTraveltime="1.47" density="4.43" occupancy="0.00" waitingTime="0.00" speed="0.46" departed="0" arrived="0" entered="1" left="1" laneChangedFrom="0" laneChangedTo="0"/>
        <edge id="-142575688#13" sampledSeconds="3.00" traveltime="3.00" overlapTraveltime="3.14" density="1.30" occupancy="0.00" waitingTime="0.00" speed="1.56" departed="0" arrived="0" entered="1" left="1" laneChangedFrom="0" laneChangedTo="0"/>
        <edge id="-142575688#14" sampledSeconds="5.00" traveltime="2.50" overlapTraveltime="2.65" density="2.88" occupancy="0.00" waitingTime="0.00" speed="1.41" departed="0" arrived="0" entered="2" left="2" laneChangedFrom="0" laneChangedTo="0"/>
        <edge id="-142575688#2" sampledSeconds="2.00" traveltime="1.00" overlapTraveltime="1.12" density="2.26" occupancy="0.00" waitingTime="0.00" speed="1.80" departed="0" arrived="0" entered="2" left="2" laneChangedFrom="0" laneChangedTo="0"/>
        <edge id="-142575688#3" sampledSeconds="22.00" traveltime="11.00" overlapTraveltime="11.15" density="2.76" occupancy="0.00" waitingTime="0.00" speed="1.48" departed="0" arrived="0" entered="2" left="2" laneChangedFrom="0" laneChangedTo="0"/>
        <edge id="-142575688#5" sampledSeconds="5.00" traveltime="1.00" overlapTraveltime="1.80" density="37.72" occupancy="0.00" waitingTime="0.00" speed="0.27" departed="0" arrived="0" entered="5" left="5" laneChangedFrom="0" laneChangedTo="0"/>
        <edge id="-142575688#6" sampledSeconds="40.00" traveltime="20.00" overlapTraveltime="20.15" density="2.77" occupancy="0.00" waitingTime="0.00" speed="1.47" departed="0" arrived="0" entered="2" left="2" laneChangedFrom="0" laneChangedTo="0"/>
        <edge id="-142575688#7" sampledSeconds="58.00" traveltime="19.33" overlapTraveltime="19.48" density="4.21" occupancy="0.00" waitingTime="0.00" speed="1.45" departed="1" arrived="0" entered="2" left="3" laneChangedFrom="0" laneChangedTo="0"/>
        <edge id="-142575688#8" sampledSeconds="37.00" traveltime="18.50" overlapTraveltime="18.65" density="2.77" occupancy="0.00" waitingTime="0.00" speed="1.47" departed="0" arrived="0" entered="2" left="2" laneChangedFrom="0" laneChangedTo="0"/>
        <edge id="-142575688#9" sampledSeconds="13.00" traveltime="4.33" overlapTraveltime="4.50" density="4.63" occupancy="0.00" waitingTime="0.00" speed="1.32" departed="0" arrived="0" entered="3" left="3" laneChangedFrom="0" laneChangedTo="0"/>
        <edge id="-142575689" sampledSeconds="0.00" departed="0" arrived="0" entered="0" left="0" laneChangedFrom="0" laneChangedTo="0"/>
        <edge id="-142575690#0" sampledSeconds="0.00" departed="0" arrived="0" entered="0" left="0" laneChangedFrom="0" laneChangedTo="0"/>
        <edge id="-142575690#2" sampledSeconds="0.00" departed="0" arrived="0" entered="0" left="0" laneChangedFrom="0" laneChangedTo="0"/>
        <edge id="-142575690#3" sampledSeconds="0.00" departed="0" arrived="0" entered="0" left="0" laneChangedFrom="0" laneChangedTo="0"/>
        <edge id="-142575690#5" sampledSeconds="0.00" departed="0" arrived="0" entered="0" left="0" laneChangedFrom="0" laneChangedTo="0"/>
        <edge id="-142575690#6" sampledSeconds="0.00" departed="0" arrived="0" entered="0" left="0" laneChangedFrom="0" laneChangedTo="0"/>
        <edge id="-142575690#7" sampledSeconds="0.00" departed="0" arrived="0" entered="0" left="0" laneChangedFrom="0" laneChangedTo="0"/>
        <edge id="-142575690#8" sampledSeconds="0.00" departed="0" arrived="0" entered="0" left="0" laneChangedFrom="0" laneChangedTo="0"/>
        <edge id="-142575691#0" sampledSeconds="4.00" traveltime="1.00" overlapTraveltime="1.24" density="9.05" occupancy="0.00" waitingTime="0.00" speed="0.90" departed="0" arrived="0" entered="4" left="4" laneChangedFrom="0" laneChangedTo="0"/>
        <edge id="-142575691#1" sampledSeconds="45.00" traveltime="9.00" overlapTraveltime="9.16" density="7.34" occupancy="0.00" waitingTime="0.00" speed="1.39" departed="0" arrived="0" entered="5" left="5" laneChangedFrom="0" laneChangedTo="0"/>
        <edge id="-142575691#2" sampledSeconds="144.00" traveltime="28.80" overlapTraveltime="28.96" density="7.74" occupancy="0.00" waitingTime="0.00" speed="1.32" departed="0" arrived="0" entered="5" left="5" laneChangedFrom="0" laneChangedTo="0"/>
        <edge id="-142575691#5" sampledSeconds="74.00" traveltime="37.00" overlapTraveltime="37.16" density="3.05" occupancy="0.00" waitingTime="0.00" speed="1.34" departed="0" arrived="0" entered="3" left="2" laneChangedFrom="0" laneChangedTo="0"/>
        <edge id="-142575694#0" sampledSeconds="1.00" traveltime="1.00" overlapTraveltime="1.63" density="5.99" occupancy="0.00" waitingTime="0.00" speed="0.34" departed="0" arrived="0" entered="1" left="1" laneChangedFrom="0" laneChangedTo="0"/>
        <edge id="-142575694#1" sampledSeconds="1.00" traveltime="1.00" overlapTraveltime="1.00" density="0.01" occupancy="0.00" waitingTime="0.00" speed="161.42" departed="1" arrived="0" entered="0" left="1" laneChangedFrom="0" laneChangedTo="0"/>
        <edge id="-142575694#3" sampledSeconds="6.00" traveltime="6.00" overlapTraveltime="6.17" density="1.64" occupancy="0.00" waitingTime="0.00" speed="1.24" departed="0" arrived="0" entered="1" left="1" laneChangedFrom="0" laneChangedTo="0"/>