<?xml version="1.0" encoding="UTF-8"?>

<!-- generated on 10.05.2019 09:17:58 by Eclipse SUMO GUI Version v1_2_0+0280-89bb845180c
<configuration xmlns:xsi="http://www.w3.org/2001/XMLSchema-instance" xsi:noNamespaceSchemaLocation="http://sumo.dlr.de/xsd/sumoConfiguration.xsd">

    <input>
        <net-file value="D:\erdm_ja\sip-svn-trunk\papers\DLR\SUMO_Conference2019\tutorial\5_parking\osm.net.xml"/>
        <route-files value="D:\erdm_ja\sip-svn-trunk\papers\DLR\SUMO_Conference2019\tutorial\5_parking\osm_pt.rou.xml,D:\erdm_ja\sip-svn-trunk\papers\DLR\SUMO_Conference2019\tutorial\5_parking\osm.passenger.trips.xml,D:\erdm_ja\sip-svn-trunk\papers\DLR\SUMO_Conference2019\tutorial\5_parking\osm.pedestrian.rou.xml,D:\erdm_ja\sip-svn-trunk\papers\DLR\SUMO_Conference2019\tutorial\5_parking\custom.rou.xml"/>
        <additional-files value="D:\erdm_ja\sip-svn-trunk\papers\DLR\SUMO_Conference2019\tutorial\5_parking\osm.poly.xml,D:\erdm_ja\sip-svn-trunk\papers\DLR\SUMO_Conference2019\tutorial\5_parking\osm_stops.add.xml,D:\erdm_ja\sip-svn-trunk\papers\DLR\SUMO_Conference2019\tutorial\5_parking\edgedata.add.xml"/>
    </input>

    <processing>
        <ignore-route-errors value="true"/>
    </processing>

    <routing>
        <device.rerouting.adaptation-steps value="180"/>
    </routing>

    <report>
        <verbose value="true"/>
        <duration-log.statistics value="true"/>
        <no-step-log value="true"/>
    </report>

    <gui_only>
        <gui-settings-file value="D:\erdm_ja\sip-svn-trunk\papers\DLR\SUMO_Conference2019\tutorial\5_parking\osm.view.xml"/>
    </gui_only>

</configuration>
-->

<meandata xmlns:xsi="http://www.w3.org/2001/XMLSchema-instance" xsi:noNamespaceSchemaLocation="http://sumo.dlr.de/xsd/meandata_file.xsd">
    <interval begin="0.00" end="900.00" id="vehData">
        <edge id="-114024899" sampledSeconds="0.00" departed="0" arrived="0" entered="0" left="0" laneChangedFrom="0" laneChangedTo="0"/>
        <edge id="-114024901" sampledSeconds="0.00" departed="0" arrived="0" entered="0" left="0" laneChangedFrom="0" laneChangedTo="0"/>
        <edge id="-114024903#0" sampledSeconds="0.00" departed="0" arrived="0" entered="0" left="0" laneChangedFrom="0" laneChangedTo="0"/>
        <edge id="-114024903#1" sampledSeconds="0.00" departed="0" arrived="0" entered="0" left="0" laneChangedFrom="0" laneChangedTo="0"/>
        <edge id="-114024903#2" sampledSeconds="0.00" departed="0" arrived="0" entered="0" left="0" laneChangedFrom="0" laneChangedTo="0"/>
        <edge id="-114024903#3" sampledSeconds="0.00" departed="0" arrived="0" entered="0" left="0" laneChangedFrom="0" laneChangedTo="0"/>
        <edge id="-114024903#4" sampledSeconds="0.00" departed="0" arrived="0" entered="0" left="0" laneChangedFrom="0" laneChangedTo="0"/>
        <edge id="-114024903#5" sampledSeconds="0.00" departed="0" arrived="0" entered="0" left="0" laneChangedFrom="0" laneChangedTo="0"/>
        <edge id="-114024903#6" sampledSeconds="0.00" departed="0" arrived="0" entered="0" left="0" laneChangedFrom="0" laneChangedTo="0"/>
        <edge id="-114024904" sampledSeconds="0.00" departed="0" arrived="0" entered="0" left="0" laneChangedFrom="0" laneChangedTo="0"/>
        <edge id="-114024905" sampledSeconds="0.00" departed="0" arrived="0" entered="0" left="0" laneChangedFrom="0" laneChangedTo="0"/>
        <edge id="-114024906" sampledSeconds="0.00" departed="0" arrived="0" entered="0" left="0" laneChangedFrom="0" laneChangedTo="0"/>
        <edge id="-114207225" sampledSeconds="0.00" departed="0" arrived="0" entered="0" left="0" laneChangedFrom="0" laneChangedTo="0"/>
        <edge id="-114207227" sampledSeconds="0.00" departed="0" arrived="0" entered="0" left="0" laneChangedFrom="0" laneChangedTo="0"/>
        <edge id="-114207229" sampledSeconds="0.00" departed="0" arrived="0" entered="0" left="0" laneChangedFrom="0" laneChangedTo="0"/>
        <edge id="-114207232#0" sampledSeconds="0.00" departed="0" arrived="0" entered="0" left="0" laneChangedFrom="0" laneChangedTo="0"/>
        <edge id="-114692703#0" sampledSeconds="0.00" departed="0" arrived="0" entered="0" left="0" laneChangedFrom="0" laneChangedTo="0"/>
        <edge id="-114949101#0" sampledSeconds="0.00" departed="0" arrived="0" entered="0" left="0" laneChangedFrom="0" laneChangedTo="0"/>
        <edge id="-114952399#0" sampledSeconds="0.00" departed="0" arrived="0" entered="0" left="0" laneChangedFrom="0" laneChangedTo="0"/>
        <edge id="-114952399#1" sampledSeconds="0.00" departed="0" arrived="0" entered="0" left="0" laneChangedFrom="0" laneChangedTo="0"/>
        <edge id="-115227681" sampledSeconds="0.00" departed="0" arrived="0" entered="0" left="0" laneChangedFrom="0" laneChangedTo="0"/>
        <edge id="-115227682#0" sampledSeconds="0.00" departed="0" arrived="0" entered="0" left="0" laneChangedFrom="0" laneChangedTo="0"/>
        <edge id="-115227682#1" sampledSeconds="0.00" departed="0" arrived="0" entered="0" left="0" laneChangedFrom="0" laneChangedTo="0"/>
        <edge id="-115466410#0" sampledSeconds="0.00" departed="0" arrived="0" entered="0" left="0" laneChangedFrom="0" laneChangedTo="0"/>
        <edge id="-115466410#1" sampledSeconds="0.00" departed="0" arrived="0" entered="0" left="0" laneChangedFrom="0" laneChangedTo="0"/>
        <edge id="-116342915" sampledSeconds="0.00" departed="0" arrived="0" entered="0" left="0" laneChangedFrom="0" laneChangedTo="0"/>
        <edge id="-116391654#1" sampledSeconds="0.00" departed="0" arrived="0" entered="0" left="0" laneChangedFrom="0" laneChangedTo="0"/>
        <edge id="-122666828#0" sampledSeconds="0.00" departed="0" arrived="0" entered="0" left="0" laneChangedFrom="0" laneChangedTo="0"/>
        <edge id="-122666828#1" sampledSeconds="0.00" departed="0" arrived="0" entered="0" left="0" laneChangedFrom="0" laneChangedTo="0"/>
        <edge id="-122666828#2" sampledSeconds="0.00" departed="0" arrived="0" entered="0" left="0" laneChangedFrom="0" laneChangedTo="0"/>
        <edge id="-122868966" sampledSeconds="0.00" departed="0" arrived="0" entered="0" left="0" laneChangedFrom="0" laneChangedTo="0"/>
        <edge id="-125399001#0" sampledSeconds="0.00" departed="0" arrived="0" entered="0" left="0" laneChangedFrom="0" laneChangedTo="0"/>
        <edge id="-125399001#1" sampledSeconds="0.00" departed="0" arrived="0" entered="0" left="0" laneChangedFrom="0" laneChangedTo="0"/>
        <edge id="-125399001#2" sampledSeconds="0.00" departed="0" arrived="0" entered="0" left="0" laneChangedFrom="0" laneChangedTo="0"/>
        <edge id="-125399001#3" sampledSeconds="0.00" departed="0" arrived="0" entered="0" left="0" laneChangedFrom="0" laneChangedTo="0"/>
        <edge id="-125399002#0" sampledSeconds="0.00" departed="0" arrived="0" entered="0" left="0" laneChangedFrom="0" laneChangedTo="0"/>
        <edge id="-125399002#1" sampledSeconds="0.00" departed="0" arrived="0" entered="0" left="0" laneChangedFrom="0" laneChangedTo="0"/>
        <edge id="-128643749" sampledSeconds="0.00" departed="0" arrived="0" entered="0" left="0" laneChangedFrom="0" laneChangedTo="0"/>
        <edge id="-133858189" sampledSeconds="0.00" departed="0" arrived="0" entered="0" left="0" laneChangedFrom="0" laneChangedTo="0"/>
        <edge id="-133858466" sampledSeconds="0.00" departed="0" arrived="0" entered="0" left="0" laneChangedFrom="0" laneChangedTo="0"/>
        <edge id="-133858467#0" sampledSeconds="0.00" departed="0" arrived="0" entered="0" left="0" laneChangedFrom="0" laneChangedTo="0"/>
        <edge id="-133858467#1" sampledSeconds="0.00" departed="0" arrived="0" entered="0" left="0" laneChangedFrom="0" laneChangedTo="0"/>
        <edge id="-133858467#2" sampledSeconds="0.00" departed="0" arrived="0" entered="0" left="0" laneChangedFrom="0" laneChangedTo="0"/>
        <edge id="-137482783#0" sampledSeconds="0.00" departed="0" arrived="0" entered="0" left="0" laneChangedFrom="0" laneChangedTo="0"/>
        <edge id="-137482783#1" sampledSeconds="0.00" departed="0" arrived="0" entered="0" left="0" laneChangedFrom="0" laneChangedTo="0"/>
        <edge id="-137483014#0" sampledSeconds="10.32" traveltime="10.51" overlapTraveltime="10.84" density="0.11" occupancy="0.03" waitingTime="0.00" speed="9.86" departed="1" arrived="0" entered="0" left="1" laneChangedFrom="0" laneChangedTo="0"/>
        <edge id="-137483015#0" sampledSeconds="24.62" traveltime="7.68" overlapTraveltime="8.38" density="0.35" occupancy="0.08" waitingTime="0.00" speed="9.95" departed="1" arrived="0" entered="2" left="3" laneChangedFrom="0" laneChangedTo="0"/>
        <edge id="-137483015#2" sampledSeconds="3.93" traveltime="0.65" overlapTraveltime="1.56" density="0.76" occupancy="0.11" waitingTime="0.00" speed="6.92" departed="1" arrived="0" entered="2" left="3" laneChangedFrom="0" laneChangedTo="0"/>
        <edge id="-137483015#3" sampledSeconds="3.50" traveltime="1.55" overlapTraveltime="2.09" density="0.36" occupancy="0.07" waitingTime="0.00" speed="7.60" departed="1" arrived="0" entered="1" left="2" laneChangedFrom="0" laneChangedTo="0"/>
        <edge id="-137534616#0" sampledSeconds="92.51" traveltime="9.95" overlapTraveltime="12.09" density="2.13" occupancy="0.83" waitingTime="31.00" speed="4.69" departed="0" arrived="0" entered="8" left="8" laneChangedFrom="0" laneChangedTo="0"/>
        <edge id="-137534616#1" sampledSeconds="78.46" traveltime="7.37" overlapTraveltime="7.85" density="0.93" occupancy="0.25" waitingTime="0.00" speed="12.61" departed="0" arrived="1" entered="10" left="9" laneChangedFrom="0" laneChangedTo="0"/>
        <edge id="-137534616#2" sampledSeconds="90.83" traveltime="5.79" overlapTraveltime="6.49" density="1.38" occupancy="0.35" waitingTime="0.00" speed="12.08" departed="0" arrived="1" entered="14" left="13" laneChangedFrom="0" laneChangedTo="0"/>
        <edge id="-137534616#3" sampledSeconds="53.12" traveltime="2.76" overlapTraveltime="3.27" density="1.75" occupancy="0.40" waitingTime="0.00" speed="11.95" departed="0" arrived="0" entered="17" left="16" laneChangedFrom="0" laneChangedTo="0"/>
        <edge id="-137534616#4" sampledSeconds="30.93" traveltime="1.42" overlapTraveltime="1.85" density="1.84" occupancy="0.39" waitingTime="0.00" speed="13.09" departed="0" arrived="1" entered="17" left="16" laneChangedFrom="0" laneChangedTo="0"/>
        <edge id="-138628388" sampledSeconds="0.00" departed="0" arrived="0" entered="0" left="0" laneChangedFrom="0" laneChangedTo="0"/>
        <edge id="-140964924#0" sampledSeconds="2.49" traveltime="0.30" overlapTraveltime="1.08" density="1.80" occupancy="0.10" waitingTime="0.00" speed="6.05" departed="0" arrived="1" entered="3" left="2" laneChangedFrom="0" laneChangedTo="0"/>
        <edge id="-140964924#1" sampledSeconds="65.18" traveltime="32.35" overlapTraveltime="33.34" density="0.33" occupancy="0.08" waitingTime="0.00" speed="6.82" departed="2" arrived="0" entered="0" left="2" laneChangedFrom="0" laneChangedTo="0"/>
        <edge id="-142575655#0" sampledSeconds="91.50" traveltime="4.56" overlapTraveltime="5.38" density="2.27" occupancy="0.50" waitingTime="0.00" speed="9.25" departed="0" arrived="0" entered="17" left="17" laneChangedFrom="0" laneChangedTo="0"/>
        <edge id="-142575655#1" sampledSeconds="61.47" traveltime="3.46" overlapTraveltime="3.84" density="1.57" occupancy="0.35" waitingTime="0.00" speed="12.61" departed="0" arrived="0" entered="16" left="16" laneChangedFrom="0" laneChangedTo="0"/>
        <edge id="-142575655#4" sampledSeconds="80.00" traveltime="4.85" overlapTraveltime="5.33" density="1.43" occupancy="0.33" waitingTime="0.00" speed="12.55" departed="0" arrived="0" entered="15" left="15" laneChangedFrom="0" laneChangedTo="0"/>
        <edge id="-142575655#5" sampledSeconds="25.62" traveltime="1.32" overlapTraveltime="1.71" density="1.67" occupancy="0.32" waitingTime="0.00" speed="12.88" departed="0" arrived="0" entered="15" left="15" laneChangedFrom="0" laneChangedTo="0"/>
        <edge id="-142575655#6" sampledSeconds="31.11" traveltime="1.67" overlapTraveltime="2.07" density="1.80" occupancy="0.35" waitingTime="0.00" speed="11.66" departed="0" arrived="0" entered="15" left="15" laneChangedFrom="0" laneChangedTo="0"/>
        <edge id="-142575655#7" sampledSeconds="108.30" traveltime="6.75" overlapTraveltime="7.28" density="1.52" occupancy="0.36" waitingTime="0.00" speed="11.55" departed="2" arrived="0" entered="13" left="15" laneChangedFrom="0" laneChangedTo="0"/>
        <edge id="-142575655#8" sampledSeconds="27.92" traveltime="1.96" overlapTraveltime="2.37" density="1.47" occupancy="0.30" waitingTime="0.00" speed="11.03" departed="1" arrived="0" entered="11" left="12" laneChangedFrom="0" laneChangedTo="0"/>
        <edge id="-142575655#9" sampledSeconds="39.63" traveltime="3.58" overlapTraveltime="3.96" density="1.04" occupancy="0.23" waitingTime="0.00" speed="11.97" departed="0" arrived="0" entered="10" left="10" laneChangedFrom="0" laneChangedTo="0"/>
        <edge id="-142575656#0" sampledSeconds="44.58" traveltime="5.57" overlapTraveltime="6.37" density="0.88" occupancy="0.20" waitingTime="0.00" speed="9.62" departed="0" arrived="0" entered="7" left="7" laneChangedFrom="0" laneChangedTo="0"/>
        <edge id="-142575656#1" sampledSeconds="7.02" traveltime="0.47" overlapTraveltime="1.08" density="1.59" occupancy="0.20" waitingTime="0.00" speed="9.19" departed="1" arrived="0" entered="6" left="7" laneChangedFrom="0" laneChangedTo="0"/>
        <edge id="-142575656#10" sampledSeconds="49.94" traveltime="1.59" overlapTraveltime="2.02" density="3.48" occupancy="0.67" waitingTime="0.00" speed="10.39" departed="1" arrived="0" entered="24" left="25" laneChangedFrom="0" laneChangedTo="0"/>
        <edge id="-142575656#11" sampledSeconds="54.27" traveltime="2.01" overlapTraveltime="2.58" density="2.76" occupancy="0.55" waitingTime="0.00" speed="10.40" departed="0" arrived="0" entered="21" left="21" laneChangedFrom="0" laneChangedTo="0"/>
        <edge id="-142575656#12" sampledSeconds="32.50" traveltime="1.21" overlapTraveltime="1.65" density="2.92" occupancy="0.53" waitingTime="0.00" speed="10.53" departed="1" arrived="0" entered="19" left="20" laneChangedFrom="0" laneChangedTo="0"/>
        <edge id="-142575656#14" sampledSeconds="47.78" traveltime="2.80" overlapTraveltime="3.19" density="1.50" occupancy="0.33" waitingTime="0.00" speed="12.67" departed="0" arrived="0" entered="15" left="15" laneChangedFrom="0" laneChangedTo="0"/>
        <edge id="-142575656#15" sampledSeconds="39.88" traveltime="2.26" overlapTraveltime="2.66" density="1.62" occupancy="0.34" waitingTime="0.00" speed="12.14" departed="0" arrived="0" entered="15" left="15" laneChangedFrom="0" laneChangedTo="0"/>
        <edge id="-142575656#3" sampledSeconds="22.91" traveltime="3.44" overlapTraveltime="3.82" density="0.56" occupancy="0.13" waitingTime="0.00" speed="13.31" departed="0" arrived="1" entered="6" left="5" laneChangedFrom="0" laneChangedTo="0"/>
        <edge id="-142575656#4" sampledSeconds="5.72" traveltime="0.58" overlapTraveltime="0.95" density="0.81" occupancy="0.12" waitingTime="0.00" speed="13.47" departed="0" arrived="0" entered="6" left="6" laneChangedFrom="0" laneChangedTo="0"/>
        <edge id="-142575656#5" sampledSeconds="9.67" traveltime="1.06" overlapTraveltime="1.43" density="0.76" occupancy="0.14" waitingTime="0.00" speed="13.44" departed="0" arrived="1" entered="7" left="6" laneChangedFrom="0" laneChangedTo="0"/>
        <edge id="-142575656#6" sampledSeconds="36.42" traveltime="4.07" overlapTraveltime="4.55" density="0.81" occupancy="0.18" waitingTime="0.00" speed="12.07" departed="0" arrived="0" entered="8" left="8" laneChangedFrom="0" laneChangedTo="0"/>
        <edge id="-142575656#7" sampledSeconds="152.54" traveltime="5.23" overlapTraveltime="6.10" density="3.18" occupancy="0.72" waitingTime="0.00" speed="9.56" departed="0" arrived="1" entered="25" left="24" laneChangedFrom="0" laneChangedTo="0"/>
        <edge id="-142575656#8" sampledSeconds="50.81" traveltime="1.57" overlapTraveltime="1.96" density="2.94" occupancy="0.58" waitingTime="0.00" speed="12.34" departed="0" arrived="1" entered="26" left="25" laneChangedFrom="0" laneChangedTo="0"/>
        <edge id="-142575656#9" sampledSeconds="19.20" traveltime="0.36" overlapTraveltime="0.77" density="4.88" occupancy="0.57" waitingTime="0.00" speed="12.20" departed="0" arrived="0" entered="25" left="25" laneChangedFrom="0" laneChangedTo="0"/>
        <edge id="-142575657#0" sampledSeconds="31.60" traveltime="5.59" overlapTraveltime="6.32" density="0.56" occupancy="0.13" waitingTime="0.00" speed="10.63" departed="0" arrived="0" entered="5" left="5" laneChangedFrom="0" laneChangedTo="0"/>
        <edge id="-142575657#1" sampledSeconds="18.62" traveltime="2.72" overlapTraveltime="3.10" density="0.69" occupancy="0.15" waitingTime="0.00" speed="11.22" departed="0" arrived="1" entered="6" left="5" laneChangedFrom="0" laneChangedTo="0"/>
        <edge id="-142575657#2" sampledSeconds="8.68" traveltime="1.25" overlapTraveltime="1.74" density="0.98" occupancy="0.16" waitingTime="0.00" speed="8.53" departed="0" arrived="0" entered="5" left="5" laneChangedFrom="0" laneChangedTo="0"/>
        <edge id="-142575657#3" sampledSeconds="21.78" traveltime="6.90" overlapTraveltime="7.26" density="0.30" occupancy="0.07" waitingTime="0.00" speed="11.62" departed="0" arrived="0" entered="3" left="3" laneChangedFrom="0" laneChangedTo="0"/>
        <edge id="-142575657#4" sampledSeconds="18.87" traveltime="18.75" overlapTraveltime="19.36" density="0.11" occupancy="0.03" waitingTime="0.00" speed="10.48" departed="1" arrived="0" entered="0" left="1" laneChangedFrom="0" laneChangedTo="0"/>
        <edge id="-142575658#0" sampledSeconds="0.00" departed="0" arrived="0" entered="0" left="0" laneChangedFrom="0" laneChangedTo="0"/>
        <edge id="-142575658#1" sampledSeconds="0.00" departed="0" arrived="0" entered="0" left="0" laneChangedFrom="0" laneChangedTo="0"/>
        <edge id="-142575658#2" sampledSeconds="0.00" departed="0" arrived="0" entered="0" left="0" laneChangedFrom="0" laneChangedTo="0"/>
        <edge id="-142575659#0" sampledSeconds="2.77" traveltime="2.38" overlapTraveltime="2.77" density="0.10" occupancy="0.04" waitingTime="0.00" speed="12.90" departed="0" arrived="0" entered="1" left="1" laneChangedFrom="0" laneChangedTo="0"/>
        <edge id="-142575659#1" sampledSeconds="6.71" traveltime="6.35" overlapTraveltime="6.71" density="0.09" occupancy="0.04" waitingTime="0.00" speed="12.85" departed="0" arrived="0" entered="1" left="1" laneChangedFrom="0" laneChangedTo="0"/>
        <edge id="-142575659#2" sampledSeconds="5.56" traveltime="5.17" overlapTraveltime="5.56" density="0.11" occupancy="0.05" waitingTime="0.00" speed="11.32" departed="0" arrived="0" entered="1" left="1" laneChangedFrom="0" laneChangedTo="0"/>
        <edge id="-142575661#0" sampledSeconds="18.13" traveltime="2.39" overlapTraveltime="3.15" density="1.32" occupancy="0.27" waitingTime="0.00" speed="6.41" departed="1" arrived="0" entered="5" left="6" laneChangedFrom="0" laneChangedTo="0"/>
        <edge id="-142575661#1" sampledSeconds="17.51" traveltime="2.45" overlapTraveltime="2.92" density="1.01" occupancy="0.19" waitingTime="0.00" speed="8.32" departed="0" arrived="1" entered="6" left="5" laneChangedFrom="0" laneChangedTo="0"/>
        <edge id="-142575661#2" sampledSeconds="56.32" traveltime="13.41" overlapTraveltime="14.08" density="0.41" occupancy="0.10" waitingTime="0.00" speed="11.15" departed="0" arrived="1" entered="4" left="3" laneChangedFrom="0" laneChangedTo="0"/>
        <edge id="-142575661#3" sampledSeconds="7.88" traveltime="3.26" overlapTraveltime="3.94" density="0.42" occupancy="0.08" waitingTime="0.00" speed="6.61" departed="0" arrived="0" entered="2" left="2" laneChangedFrom="0" laneChangedTo="0"/>
        <edge id="-142575661#4" sampledSeconds="6.66" traveltime="6.97" overlapTraveltime="7.37" density="0.15" occupancy="0.04" waitingTime="0.00" speed="7.20" departed="1" arrived="0" entered="0" left="1" laneChangedFrom="0" laneChangedTo="0"/>
        <edge id="-142575662#0" sampledSeconds="3.11" traveltime="2.73" overlapTraveltime="3.32" density="0.19" occupancy="0.04" waitingTime="0.00" speed="6.93" departed="0" arrived="1" entered="1" left="0" laneChangedFrom="0" laneChangedTo="0"/>
        <edge id="-142575662#1" sampledSeconds="9.83" traveltime="9.47" overlapTraveltime="9.83" density="0.09" occupancy="0.02" waitingTime="0.00" speed="12.60" departed="0" arrived="1" entered="1" left="0" laneChangedFrom="0" laneChangedTo="0"/>
        <edge id="-142575662#2" sampledSeconds="16.16" traveltime="15.70" overlapTraveltime="16.70" density="0.12" occupancy="0.03" waitingTime="0.00" speed="9.44" departed="1" arrived="0" entered="0" left="1" laneChangedFrom="0" laneChangedTo="0"/>
        <edge id="-142575672#2" sampledSeconds="204.22" traveltime="24.58" overlapTraveltime="25.53" density="8.97" occupancy="1.45" waitingTime="160.00" speed="1.19" departed="0" arrived="0" entered="8" left="8" laneChangedFrom="1" laneChangedTo="1"/>
        <edge id="-142575673" sampledSeconds="0.00" departed="0" arrived="0" entered="0" left="0" laneChangedFrom="0" laneChangedTo="0"/>
        <edge id="-142575674#0" sampledSeconds="13.56" traveltime="0.07" overlapTraveltime="0.85" density="32.76" occupancy="0.69" waitingTime="0.00" speed="6.44" departed="0" arrived="1" entered="16" left="15" laneChangedFrom="0" laneChangedTo="0"/>
        <edge id="-142575674#1" sampledSeconds="120.26" traveltime="6.68" overlapTraveltime="7.52" density="1.75" occupancy="0.40" waitingTime="2.00" speed="10.80" departed="0" arrived="1" entered="16" left="15" laneChangedFrom="0" laneChangedTo="0"/>
        <edge id="-142575674#4" sampledSeconds="79.70" traveltime="3.44" overlapTraveltime="3.99" density="2.20" occupancy="0.48" waitingTime="0.00" speed="11.34" departed="0" arrived="0" entered="20" left="20" laneChangedFrom="0" laneChangedTo="0"/>
        <edge id="-142575677#0" sampledSeconds="8.10" traveltime="7.74" overlapTraveltime="8.10" density="0.09" occupancy="0.02" waitingTime="0.00" speed="12.78" departed="0" arrived="1" entered="1" left="0" laneChangedFrom="0" laneChangedTo="0"/>
        <edge id="-142575677#1" sampledSeconds="8.12" traveltime="7.23" overlapTraveltime="8.12" density="0.10" occupancy="0.02" waitingTime="0.00" speed="11.49" departed="0" arrived="0" entered="1" left="1" laneChangedFrom="0" laneChangedTo="0"/>
        <edge id="-142575677#2" sampledSeconds="12.55" traveltime="12.20" overlapTraveltime="12.55" density="0.08" occupancy="0.02" waitingTime="0.00" speed="14.24" departed="0" arrived="0" entered="1" left="1" laneChangedFrom="0" laneChangedTo="0"/>
        <edge id="-142575677#3" sampledSeconds="8.48" traveltime="3.48" overlapTraveltime="4.24" density="0.24" occupancy="0.05" waitingTime="0.00" speed="10.25" departed="0" arrived="0" entered="2" left="2" laneChangedFrom="0" laneChangedTo="0"/>
        <edge id="-142575684#0" sampledSeconds="11.70" traveltime="1.57" overlapTraveltime="1.95" density="0.66" occupancy="0.13" waitingTime="0.00" speed="12.69" departed="0" arrived="0" entered="6" left="6" laneChangedFrom="0" laneChangedTo="0"/>
        <edge id="-142575684#1" sampledSeconds="8.82" traveltime="1.11" overlapTraveltime="1.55" density="0.87" occupancy="0.16" waitingTime="0.00" speed="10.50" departed="1" arrived="0" entered="5" left="6" laneChangedFrom="0" laneChangedTo="0"/>
        <edge id="-142575684#4" sampledSeconds="37.42" traveltime="5.87" overlapTraveltime="6.24" density="0.56" occupancy="0.13" waitingTime="0.00" speed="12.76" departed="0" arrived="1" entered="6" left="5" laneChangedFrom="0" laneChangedTo="0"/>
        <edge id="-142575684#5" sampledSeconds="87.91" traveltime="17.67" overlapTraveltime="18.03" density="0.49" occupancy="0.12" waitingTime="0.00" speed="11.28" departed="5" arrived="0" entered="0" left="5" laneChangedFrom="0" laneChangedTo="0"/>
        <edge id="-142575687#0" sampledSeconds="49.56" traveltime="7.76" overlapTraveltime="8.29" density="0.62" occupancy="0.15" waitingTime="0.00" speed="11.24" departed="0" arrived="2" entered="6" left="4" laneChangedFrom="0" laneChangedTo="0"/>
        <edge id="-142575687#1" sampledSeconds="16.84" traveltime="3.95" overlapTraveltime="4.35" density="0.56" occupancy="0.12" waitingTime="0.00" speed="8.82" departed="1" arrived="0" entered="3" left="4" laneChangedFrom="0" laneChangedTo="0"/>
        <edge id="-142575688#0" sampledSeconds="20.02" traveltime="4.39" overlapTraveltime="5.03" density="0.51" occupancy="0.11" waitingTime="0.00" speed="9.68" departed="0" arrived="1" entered="4" left="3" laneChangedFrom="0" laneChangedTo="0"/>
        <edge id="-142575688#1" sampledSeconds="11.62" traveltime="3.50" overlapTraveltime="3.87" density="0.33" occupancy="0.07" waitingTime="0.00" speed="11.47" departed="0" arrived="0" entered="3" left="3" laneChangedFrom="0" laneChangedTo="0"/>
        <edge id="-142575688#10" sampledSeconds="2.39" traveltime="4.28" overlapTraveltime="4.28" density="0.40" occupancy="0.07" waitingTime="0.00" speed="2.71" departed="1" arrived="0" entered="0" left="1" laneChangedFrom="0" laneChangedTo="0"/>
        <edge id="-142575688#12" sampledSeconds="0.18" traveltime="0.17" overlapTraveltime="2.00" density="0.43" occupancy="0.01" waitingTime="0.00" speed="2.73" departed="0" arrived="1" entered="1" left="0" laneChangedFrom="0" laneChangedTo="0"/>
        <edge id="-142575688#13" sampledSeconds="0.00" departed="0" arrived="0" entered="0" left="0" laneChangedFrom="0" laneChangedTo="0"/>
        <edge id="-142575688#14" sampledSeconds="0.00" departed="0" arrived="0" entered="0" left="0" laneChangedFrom="0" laneChangedTo="0"/>
        <edge id="-142575688#2" sampledSeconds="0.95" traveltime="0.13" overlapTraveltime="0.47" density="0.58" occupancy="0.04" waitingTime="0.00" speed="14.38" departed="0" arrived="0" entered="2" left="2" laneChangedFrom="0" laneChangedTo="0"/>
        <edge id="-142575688#3" sampledSeconds="3.56" traveltime="1.40" overlapTraveltime="1.78" density="0.24" occupancy="0.05" waitingTime="0.00" speed="11.92" departed="0" arrived="0" entered="2" left="2" laneChangedFrom="0" laneChangedTo="0"/>
        <edge id="-142575688#5" sampledSeconds="3.33" traveltime="0.04" overlapTraveltime="1.13" density="13.72" occupancy="0.18" waitingTime="0.00" speed="4.66" departed="1" arrived="0" entered="2" left="3" laneChangedFrom="0" laneChangedTo="0"/>
        <edge id="-142575688#6" sampledSeconds="7.09" traveltime="2.70" overlapTraveltime="3.55" density="0.27" occupancy="0.06" waitingTime="0.00" speed="9.70" departed="0" arrived="0" entered="2" left="2" laneChangedFrom="0" laneChangedTo="0"/>
        <edge id="-142575688#7" sampledSeconds="4.79" traveltime="2.04" overlapTraveltime="2.40" density="0.19" occupancy="0.04" waitingTime="0.00" speed="13.78" departed="0" arrived="0" entered="2" left="2" laneChangedFrom="0" laneChangedTo="0"/>
        <edge id="-142575688#8" sampledSeconds="5.85" traveltime="2.55" overlapTraveltime="2.92" density="0.24" occupancy="0.05" waitingTime="0.00" speed="11.02" departed="0" arrived="0" entered="2" left="2" laneChangedFrom="0" laneChangedTo="0"/>
        <edge id="-142575688#9" sampledSeconds="3.52" traveltime="1.08" overlapTraveltime="1.76" density="0.68" occupancy="0.09" waitingTime="0.00" speed="6.09" departed="0" arrived="0" entered="2" left="2" laneChangedFrom="0" laneChangedTo="0"/>
        <edge id="-142575689" sampledSeconds="34.34" traveltime="10.46" overlapTraveltime="11.66" density="0.43" occupancy="0.20" waitingTime="0.00" speed="8.00" departed="1" arrived="0" entered="2" left="3" laneChangedFrom="0" laneChangedTo="0"/>
        <edge id="-142575690#0" sampledSeconds="21.64" traveltime="2.90" overlapTraveltime="3.73" density="1.19" occupancy="0.49" waitingTime="0.00" speed="6.76" departed="1" arrived="1" entered="5" left="5" laneChangedFrom="0" laneChangedTo="0"/>
        <edge id="-142575690#2" sampledSeconds="6.60" traveltime="1.27" overlapTraveltime="1.81" density="0.77" occupancy="0.28" waitingTime="0.00" speed="8.01" departed="1" arrived="0" entered="3" left="4" laneChangedFrom="0" laneChangedTo="0"/>
        <edge id="-142575690#3" sampledSeconds="15.98" traveltime="5.09" overlapTraveltime="5.51" density="0.38" occupancy="0.18" waitingTime="0.00" speed="9.33" departed="1" arrived="0" entered="2" left="3" laneChangedFrom="0" laneChangedTo="0"/>
        <edge id="-142575690#5" sampledSeconds="5.75" traveltime="2.40" overlapTraveltime="2.88" density="0.24" occupancy="0.10" waitingTime="0.00" speed="11.03" departed="0" arrived="0" entered="2" left="2" laneChangedFrom="0" laneChangedTo="0"/>
        <edge id="-142575690#6" sampledSeconds="15.84" traveltime="7.46" overlapTraveltime="7.92" density="0.22" occupancy="0.10" waitingTime="0.00" speed="10.78" departed="0" arrived="0" entered="2" left="2" laneChangedFrom="0" laneChangedTo="0"/>
        <edge id="-142575690#7" sampledSeconds="11.61" traveltime="5.34" overlapTraveltime="5.80" density="0.23" occupancy="0.10" waitingTime="0.00" speed="10.58" departed="0" arrived="0" entered="2" left="2" laneChangedFrom="0" laneChangedTo="0"/>
        <edge id="-142575690#8" sampledSeconds="8.65" traveltime="2.57" overlapTraveltime="3.17" density="0.70" occupancy="0.27" waitingTime="0.00" speed="5.88" departed="1" arrived="1" entered="2" left="2" laneChangedFrom="0" laneChangedTo="0"/>
        <edge id="-142575691#0" sampledSeconds="4.21" traveltime="0.17" overlapTraveltime="1.05" density="5.19" occupancy="0.20" waitingTime="0.00" speed="5.61" departed="0" arrived="0" entered="4" left="4" laneChangedFrom="0" laneChangedTo="0"/>
        <edge id="-142575691#1" sampledSeconds="9.51" traveltime="1.48" overlapTraveltime="2.38" density="0.85" occupancy="0.15" waitingTime="0.00" speed="7.35" departed="0" arrived="0" entered="4" left="4" laneChangedFrom="0" laneChangedTo="0"/>