<?xml version="1.0" encoding="UTF-8"?>

<!-- generated on 10.05.2019 09:17:58 by Eclipse SUMO GUI Version v1_2_0+0280-89bb845180c
<configuration xmlns:xsi="http://www.w3.org/2001/XMLSchema-instance" xsi:noNamespaceSchemaLocation="http://sumo.dlr.de/xsd/sumoConfiguration.xsd">

    <input>
        <net-file value="D:\erdm_ja\sip-svn-trunk\papers\DLR\SUMO_Conference2019\tutorial\5_parking\osm.net.xml"/>
        <route-files value="D:\erdm_ja\sip-svn-trunk\papers\DLR\SUMO_Conference2019\tutorial\5_parking\osm_pt.rou.xml,D:\erdm_ja\sip-svn-trunk\papers\DLR\SUMO_Conference2019\tutorial\5_parking\osm.passenger.trips.xml,D:\erdm_ja\sip-svn-trunk\papers\DLR\SUMO_Conference2019\tutorial\5_parking\osm.pedestrian.rou.xml,D:\erdm_ja\sip-svn-trunk\papers\DLR\SUMO_Conference2019\tutorial\5_parking\custom.rou.xml"/>
        <additional-files value="D:\erdm_ja\sip-svn-trunk\papers\DLR\SUMO_Conference2019\tutorial\5_parking\osm.poly.xml,D:\erdm_ja\sip-svn-trunk\papers\DLR\SUMO_Conference2019\tutorial\5_parking\osm_stops.add.xml,D:\erdm_ja\sip-svn-trunk\papers\DLR\SUMO_Conference2019\tutorial\5_parking\edgedata.add.xml"/>
    </input>

    <processing>
        <ignore-route-errors value="true"/>
    </processing>

    <routing>
        <device.rerouting.adaptation-steps value="180"/>
    </routing>

    <report>
        <verbose value="true"/>
        <duration-log.statistics value="true"/>
        <no-step-log value="true"/>
    </report>

    <gui_only>
        <gui-settings-file value="D:\erdm_ja\sip-svn-trunk\papers\DLR\SUMO_Conference2019\tutorial\5_parking\osm.view.xml"/>
    </gui_only>

</configuration>
-->

<meandata xmlns:xsi="http://www.w3.org/2001/XMLSchema-instance" xsi:noNamespaceSchemaLocation="http://sumo.dlr.de/xsd/meandata_file.xsd">
    <interval begin="0.00" end="1451.00" id="vehData">
        <edge id="-114024899" sampledSeconds="0.00" departed="0" arrived="0" entered="0" left="0" laneChangedFrom="0" laneChangedTo="0"/>
        <edge id="-114024901" sampledSeconds="0.00" departed="0" arrived="0" entered="0" left="0" laneChangedFrom="0" laneChangedTo="0"/>
        <edge id="-114024903#0" sampledSeconds="0.00" departed="0" arrived="0" entered="0" left="0" laneChangedFrom="0" laneChangedTo="0"/>
        <edge id="-114024903#1" sampledSeconds="0.00" departed="0" arrived="0" entered="0" left="0" laneChangedFrom="0" laneChangedTo="0"/>
        <edge id="-114024903#2" sampledSeconds="0.00" departed="0" arrived="0" entered="0" left="0" laneChangedFrom="0" laneChangedTo="0"/>
        <edge id="-114024903#3" sampledSeconds="0.00" departed="0" arrived="0" entered="0" left="0" laneChangedFrom="0" laneChangedTo="0"/>
        <edge id="-114024903#4" sampledSeconds="0.00" departed="0" arrived="0" entered="0" left="0" laneChangedFrom="0" laneChangedTo="0"/>
        <edge id="-114024903#5" sampledSeconds="0.00" departed="0" arrived="0" entered="0" left="0" laneChangedFrom="0" laneChangedTo="0"/>
        <edge id="-114024903#6" sampledSeconds="0.00" departed="0" arrived="0" entered="0" left="0" laneChangedFrom="0" laneChangedTo="0"/>
        <edge id="-114024904" sampledSeconds="0.00" departed="0" arrived="0" entered="0" left="0" laneChangedFrom="0" laneChangedTo="0"/>
        <edge id="-114024905" sampledSeconds="0.00" departed="0" arrived="0" entered="0" left="0" laneChangedFrom="0" laneChangedTo="0"/>
        <edge id="-114024906" sampledSeconds="0.00" departed="0" arrived="0" entered="0" left="0" laneChangedFrom="0" laneChangedTo="0"/>
        <edge id="-114207225" sampledSeconds="0.00" departed="0" arrived="0" entered="0" left="0" laneChangedFrom="0" laneChangedTo="0"/>
        <edge id="-114207227" sampledSeconds="0.00" departed="0" arrived="0" entered="0" left="0" laneChangedFrom="0" laneChangedTo="0"/>
        <edge id="-114207229" sampledSeconds="0.00" departed="0" arrived="0" entered="0" left="0" laneChangedFrom="0" laneChangedTo="0"/>
        <edge id="-114207232#0" sampledSeconds="0.00" departed="0" arrived="0" entered="0" left="0" laneChangedFrom="0" laneChangedTo="0"/>
        <edge id="-114692703#0" sampledSeconds="0.00" departed="0" arrived="0" entered="0" left="0" laneChangedFrom="0" laneChangedTo="0"/>
        <edge id="-114949101#0" sampledSeconds="0.00" departed="0" arrived="0" entered="0" left="0" laneChangedFrom="0" laneChangedTo="0"/>
        <edge id="-114952399#0" sampledSeconds="0.00" departed="0" arrived="0" entered="0" left="0" laneChangedFrom="0" laneChangedTo="0"/>
        <edge id="-114952399#1" sampledSeconds="0.00" departed="0" arrived="0" entered="0" left="0" laneChangedFrom="0" laneChangedTo="0"/>
        <edge id="-115227681" sampledSeconds="0.00" departed="0" arrived="0" entered="0" left="0" laneChangedFrom="0" laneChangedTo="0"/>
        <edge id="-115227682#0" sampledSeconds="0.00" departed="0" arrived="0" entered="0" left="0" laneChangedFrom="0" laneChangedTo="0"/>
        <edge id="-115227682#1" sampledSeconds="0.00" departed="0" arrived="0" entered="0" left="0" laneChangedFrom="0" laneChangedTo="0"/>
        <edge id="-115466410#0" sampledSeconds="0.00" departed="0" arrived="0" entered="0" left="0" laneChangedFrom="0" laneChangedTo="0"/>
        <edge id="-115466410#1" sampledSeconds="0.00" departed="0" arrived="0" entered="0" left="0" laneChangedFrom="0" laneChangedTo="0"/>
        <edge id="-116342915" sampledSeconds="0.00" departed="0" arrived="0" entered="0" left="0" laneChangedFrom="0" laneChangedTo="0"/>
        <edge id="-116391654#1" sampledSeconds="0.00" departed="0" arrived="0" entered="0" left="0" laneChangedFrom="0" laneChangedTo="0"/>
        <edge id="-122666828#0" sampledSeconds="0.00" departed="0" arrived="0" entered="0" left="0" laneChangedFrom="0" laneChangedTo="0"/>
        <edge id="-122666828#1" sampledSeconds="0.00" departed="0" arrived="0" entered="0" left="0" laneChangedFrom="0" laneChangedTo="0"/>
        <edge id="-122666828#2" sampledSeconds="0.00" departed="0" arrived="0" entered="0" left="0" laneChangedFrom="0" laneChangedTo="0"/>
        <edge id="-122868966" sampledSeconds="0.00" departed="0" arrived="0" entered="0" left="0" laneChangedFrom="0" laneChangedTo="0"/>
        <edge id="-125399001#0" sampledSeconds="0.00" departed="0" arrived="0" entered="0" left="0" laneChangedFrom="0" laneChangedTo="0"/>
        <edge id="-125399001#1" sampledSeconds="0.00" departed="0" arrived="0" entered="0" left="0" laneChangedFrom="0" laneChangedTo="0"/>
        <edge id="-125399001#2" sampledSeconds="0.00" departed="0" arrived="0" entered="0" left="0" laneChangedFrom="0" laneChangedTo="0"/>
        <edge id="-125399001#3" sampledSeconds="0.00" departed="0" arrived="0" entered="0" left="0" laneChangedFrom="0" laneChangedTo="0"/>
        <edge id="-125399002#0" sampledSeconds="0.00" departed="0" arrived="0" entered="0" left="0" laneChangedFrom="0" laneChangedTo="0"/>
        <edge id="-125399002#1" sampledSeconds="0.00" departed="0" arrived="0" entered="0" left="0" laneChangedFrom="0" laneChangedTo="0"/>
        <edge id="-128643749" sampledSeconds="0.00" departed="0" arrived="0" entered="0" left="0" laneChangedFrom="0" laneChangedTo="0"/>
        <edge id="-133858189" sampledSeconds="0.00" departed="0" arrived="0" entered="0" left="0" laneChangedFrom="0" laneChangedTo="0"/>
        <edge id="-133858466" sampledSeconds="0.00" departed="0" arrived="0" entered="0" left="0" laneChangedFrom="0" laneChangedTo="0"/>
        <edge id="-133858467#0" sampledSeconds="0.00" departed="0" arrived="0" entered="0" left="0" laneChangedFrom="0" laneChangedTo="0"/>
        <edge id="-133858467#1" sampledSeconds="0.00" departed="0" arrived="0" entered="0" left="0" laneChangedFrom="0" laneChangedTo="0"/>
        <edge id="-133858467#2" sampledSeconds="0.00" departed="0" arrived="0" entered="0" left="0" laneChangedFrom="0" laneChangedTo="0"/>
        <edge id="-137482783#0" sampledSeconds="0.00" departed="0" arrived="0" entered="0" left="0" laneChangedFrom="0" laneChangedTo="0"/>
        <edge id="-137482783#1" sampledSeconds="0.00" departed="0" arrived="0" entered="0" left="0" laneChangedFrom="0" laneChangedTo="0"/>
        <edge id="-137483014#0" sampledSeconds="10.32" traveltime="10.51" overlapTraveltime="10.84" density="0.07" occupancy="0.02" waitingTime="0.00" speed="9.86" departed="1" arrived="0" entered="0" left="1" laneChangedFrom="0" laneChangedTo="0"/>
        <edge id="-137483015#0" sampledSeconds="24.62" traveltime="7.68" overlapTraveltime="8.38" density="0.22" occupancy="0.05" waitingTime="0.00" speed="9.95" departed="1" arrived="0" entered="2" left="3" laneChangedFrom="0" laneChangedTo="0"/>
        <edge id="-137483015#2" sampledSeconds="6.18" traveltime="0.73" overlapTraveltime="2.03" density="0.74" occupancy="0.10" waitingTime="0.00" speed="5.32" departed="2" arrived="0" entered="2" left="4" laneChangedFrom="0" laneChangedTo="0"/>
        <edge id="-137483015#3" sampledSeconds="3.50" traveltime="1.55" overlapTraveltime="2.09" density="0.22" occupancy="0.04" waitingTime="0.00" speed="7.60" departed="1" arrived="0" entered="1" left="2" laneChangedFrom="0" laneChangedTo="0"/>
        <edge id="-137534616#0" sampledSeconds="187.15" traveltime="13.95" overlapTraveltime="16.19" density="2.67" occupancy="1.04" waitingTime="89.00" speed="3.50" departed="0" arrived="0" entered="12" left="12" laneChangedFrom="0" laneChangedTo="0"/>
        <edge id="-137534616#1" sampledSeconds="115.61" traveltime="7.21" overlapTraveltime="7.71" density="0.85" occupancy="0.24" waitingTime="0.00" speed="12.87" departed="0" arrived="1" entered="15" left="14" laneChangedFrom="0" laneChangedTo="0"/>
        <edge id="-137534616#2" sampledSeconds="141.95" traveltime="5.76" overlapTraveltime="6.40" density="1.34" occupancy="0.34" waitingTime="0.00" speed="12.27" departed="0" arrived="2" entered="23" left="20" laneChangedFrom="0" laneChangedTo="0"/>
        <edge id="-137534616#3" sampledSeconds="97.52" traveltime="2.89" overlapTraveltime="3.50" density="2.00" occupancy="0.46" waitingTime="0.00" speed="11.19" departed="1" arrived="0" entered="27" left="28" laneChangedFrom="0" laneChangedTo="0"/>
        <edge id="-137534616#4" sampledSeconds="55.33" traveltime="1.52" overlapTraveltime="2.00" density="2.04" occupancy="0.43" waitingTime="0.00" speed="12.16" departed="0" arrived="1" entered="28" left="27" laneChangedFrom="0" laneChangedTo="0"/>
        <edge id="-138628388" sampledSeconds="0.00" departed="0" arrived="0" entered="0" left="0" laneChangedFrom="0" laneChangedTo="0"/>
        <edge id="-140964924#0" sampledSeconds="3.42" traveltime="0.28" overlapTraveltime="1.04" density="1.53" occupancy="0.09" waitingTime="0.00" speed="6.32" departed="0" arrived="1" entered="4" left="3" laneChangedFrom="0" laneChangedTo="0"/>
        <edge id="-140964924#1" sampledSeconds="92.05" traveltime="30.40" overlapTraveltime="31.39" density="0.29" occupancy="0.07" waitingTime="0.00" speed="7.24" departed="3" arrived="0" entered="0" left="3" laneChangedFrom="0" laneChangedTo="0"/>
        <edge id="-142575655#0" sampledSeconds="143.90" traveltime="4.69" overlapTraveltime="5.56" density="2.22" occupancy="0.49" waitingTime="0.00" speed="8.96" departed="1" arrived="0" entered="25" left="26" laneChangedFrom="0" laneChangedTo="0"/>
        <edge id="-142575655#1" sampledSeconds="91.72" traveltime="3.44" overlapTraveltime="3.82" density="1.45" occupancy="0.32" waitingTime="0.00" speed="12.68" departed="0" arrived="0" entered="24" left="24" laneChangedFrom="0" laneChangedTo="0"/>
        <edge id="-142575655#4" sampledSeconds="138.19" traveltime="4.80" overlapTraveltime="5.32" density="1.54" occupancy="0.35" waitingTime="0.00" speed="12.60" departed="0" arrived="0" entered="26" left="26" laneChangedFrom="0" laneChangedTo="0"/>
        <edge id="-142575655#5" sampledSeconds="43.69" traveltime="1.30" overlapTraveltime="1.68" density="1.77" occupancy="0.34" waitingTime="0.00" speed="13.09" departed="0" arrived="0" entered="26" left="26" laneChangedFrom="0" laneChangedTo="0"/>
        <edge id="-142575655#6" sampledSeconds="54.13" traveltime="1.68" overlapTraveltime="2.08" density="1.94" occupancy="0.38" waitingTime="0.00" speed="11.62" departed="0" arrived="0" entered="26" left="26" laneChangedFrom="0" laneChangedTo="0"/>
        <edge id="-142575655#7" sampledSeconds="192.10" traveltime="6.42" overlapTraveltime="6.94" density="1.67" occupancy="0.39" waitingTime="0.00" speed="12.11" departed="2" arrived="0" entered="26" left="27" laneChangedFrom="0" laneChangedTo="0"/>
        <edge id="-142575655#8" sampledSeconds="53.07" traveltime="1.75" overlapTraveltime="2.14" density="1.73" occupancy="0.35" waitingTime="0.00" speed="12.19" departed="1" arrived="0" entered="24" left="25" laneChangedFrom="0" laneChangedTo="0"/>
        <edge id="-142575655#9" sampledSeconds="86.91" traveltime="3.40" overlapTraveltime="3.78" density="1.41" occupancy="0.31" waitingTime="0.00" speed="12.56" departed="0" arrived="0" entered="23" left="23" laneChangedFrom="0" laneChangedTo="0"/>
        <edge id="-142575656#0" sampledSeconds="62.97" traveltime="5.49" overlapTraveltime="6.30" density="0.77" occupancy="0.17" waitingTime="0.00" speed="9.72" departed="0" arrived="0" entered="10" left="10" laneChangedFrom="0" laneChangedTo="0"/>
        <edge id="-142575656#1" sampledSeconds="11.27" traveltime="0.46" overlapTraveltime="1.07" density="1.58" occupancy="0.20" waitingTime="0.00" speed="9.24" departed="1" arrived="0" entered="10" left="11" laneChangedFrom="0" laneChangedTo="0"/>
        <edge id="-142575656#10" sampledSeconds="75.15" traveltime="1.58" overlapTraveltime="2.00" density="3.25" occupancy="0.63" waitingTime="0.00" speed="10.46" departed="2" arrived="0" entered="36" left="38" laneChangedFrom="0" laneChangedTo="0"/>
        <edge id="-142575656#11" sampledSeconds="72.98" traveltime="1.97" overlapTraveltime="2.52" density="2.30" occupancy="0.46" waitingTime="0.00" speed="10.68" departed="0" arrived="0" entered="29" left="29" laneChangedFrom="0" laneChangedTo="0"/>
        <edge id="-142575656#12" sampledSeconds="41.65" traveltime="1.13" overlapTraveltime="1.56" density="2.32" occupancy="0.42" waitingTime="0.00" speed="11.13" departed="1" arrived="0" entered="26" left="27" laneChangedFrom="0" laneChangedTo="0"/>
        <edge id="-142575656#14" sampledSeconds="69.04" traveltime="2.75" overlapTraveltime="3.14" density="1.35" occupancy="0.29" waitingTime="0.00" speed="12.86" departed="0" arrived="0" entered="22" left="22" laneChangedFrom="0" laneChangedTo="0"/>
        <edge id="-142575656#15" sampledSeconds="63.10" traveltime="2.30" overlapTraveltime="2.74" density="1.59" occupancy="0.33" waitingTime="0.00" speed="11.76" departed="0" arrived="0" entered="23" left="23" laneChangedFrom="0" laneChangedTo="0"/>
        <edge id="-142575656#3" sampledSeconds="38.40" traveltime="3.43" overlapTraveltime="3.84" density="0.58" occupancy="0.13" waitingTime="0.00" speed="13.24" departed="0" arrived="1" entered="10" left="9" laneChangedFrom="0" laneChangedTo="0"/>
        <edge id="-142575656#4" sampledSeconds="10.25" traveltime="0.57" overlapTraveltime="0.93" density="0.90" occupancy="0.14" waitingTime="0.00" speed="13.78" departed="0" arrived="1" entered="11" left="10" laneChangedFrom="0" laneChangedTo="0"/>
        <edge id="-142575656#5" sampledSeconds="17.29" traveltime="1.03" overlapTraveltime="1.40" density="0.84" occupancy="0.16" waitingTime="0.00" speed="13.75" departed="0" arrived="1" entered="13" left="11" laneChangedFrom="0" laneChangedTo="0"/>
        <edge id="-142575656#6" sampledSeconds="62.27" traveltime="4.02" overlapTraveltime="4.45" density="0.86" occupancy="0.19" waitingTime="0.00" speed="12.35" departed="0" arrived="0" entered="14" left="14" laneChangedFrom="0" laneChangedTo="0"/>
        <edge id="-142575656#7" sampledSeconds="230.90" traveltime="5.23" overlapTraveltime="6.08" density="2.98" occupancy="0.67" waitingTime="2.00" speed="9.60" departed="0" arrived="1" entered="38" left="37" laneChangedFrom="0" laneChangedTo="0"/>
        <edge id="-142575656#8" sampledSeconds="79.72" traveltime="1.59" overlapTraveltime="2.00" density="2.86" occupancy="0.56" waitingTime="0.00" speed="12.12" departed="0" arrived="1" entered="40" left="39" laneChangedFrom="0" laneChangedTo="0"/>
        <edge id="-142575656#9" sampledSeconds="28.72" traveltime="0.36" overlapTraveltime="0.76" density="4.53" occupancy="0.53" waitingTime="0.00" speed="12.40" departed="0" arrived="0" entered="38" left="38" laneChangedFrom="0" laneChangedTo="0"/>
        <edge id="-142575657#0" sampledSeconds="58.76" traveltime="5.84" overlapTraveltime="6.53" density="0.65" occupancy="0.15" waitingTime="0.00" speed="10.29" departed="0" arrived="0" entered="9" left="9" laneChangedFrom="0" laneChangedTo="0"/>
        <edge id="-142575657#1" sampledSeconds="33.36" traveltime="3.01" overlapTraveltime="3.40" density="0.77" occupancy="0.17" waitingTime="0.00" speed="10.23" departed="1" arrived="2" entered="9" left="8" laneChangedFrom="0" laneChangedTo="0"/>
        <edge id="-142575657#2" sampledSeconds="12.33" traveltime="1.27" overlapTraveltime="1.76" density="0.87" occupancy="0.14" waitingTime="0.00" speed="8.41" departed="0" arrived="0" entered="7" left="7" laneChangedFrom="0" laneChangedTo="0"/>
        <edge id="-142575657#3" sampledSeconds="28.14" traveltime="6.68" overlapTraveltime="7.03" density="0.24" occupancy="0.06" waitingTime="0.00" speed="12.00" departed="0" arrived="0" entered="4" left="4" laneChangedFrom="0" laneChangedTo="0"/>
        <edge id="-142575657#4" sampledSeconds="37.85" traveltime="18.79" overlapTraveltime="19.41" density="0.13" occupancy="0.03" waitingTime="0.00" speed="10.45" departed="2" arrived="0" entered="0" left="2" laneChangedFrom="0" laneChangedTo="0"/>
        <edge id="-142575658#0" sampledSeconds="9.52" traveltime="9.14" overlapTraveltime="9.52" density="0.06" occupancy="0.01" waitingTime="0.00" speed="11.74" departed="0" arrived="1" entered="1" left="0" laneChangedFrom="0" laneChangedTo="0"/>
        <edge id="-142575658#1" sampledSeconds="20.69" traveltime="9.34" overlapTraveltime="10.34" density="0.12" occupancy="0.03" waitingTime="0.00" speed="12.25" departed="0" arrived="0" entered="2" left="2" laneChangedFrom="0" laneChangedTo="0"/>
        <edge id="-142575658#2" sampledSeconds="17.13" traveltime="5.03" overlapTraveltime="5.94" density="0.30" occupancy="0.07" waitingTime="0.00" speed="7.41" departed="1" arrived="0" entered="2" left="3" laneChangedFrom="0" laneChangedTo="0"/>
        <edge id="-142575659#0" sampledSeconds="8.15" traveltime="2.34" overlapTraveltime="2.72" density="0.18" occupancy="0.08" waitingTime="0.00" speed="13.14" departed="0" arrived="0" entered="3" left="3" laneChangedFrom="0" laneChangedTo="0"/>
        <edge id="-142575659#1" sampledSeconds="21.08" traveltime="6.65" overlapTraveltime="7.03" density="0.18" occupancy="0.08" waitingTime="0.00" speed="12.28" departed="0" arrived="0" entered="3" left="3" laneChangedFrom="0" laneChangedTo="0"/>
        <edge id="-142575659#2" sampledSeconds="19.57" traveltime="6.32" overlapTraveltime="6.70" density="0.23" occupancy="0.11" waitingTime="0.00" speed="9.38" departed="1" arrived="1" entered="2" left="2" laneChangedFrom="0" laneChangedTo="0"/>
        <edge id="-142575661#0" sampledSeconds="35.33" traveltime="2.71" overlapTraveltime="3.57" density="1.60" occupancy="0.32" waitingTime="2.00" speed="5.66" departed="1" arrived="0" entered="10" left="10" laneChangedFrom="0" laneChangedTo="0"/>
        <edge id="-142575661#1" sampledSeconds="25.84" traveltime="2.13" overlapTraveltime="2.58" density="0.92" occupancy="0.18" waitingTime="0.00" speed="9.40" departed="0" arrived="1" entered="10" left="9" laneChangedFrom="0" laneChangedTo="0"/>
        <edge id="-142575661#2" sampledSeconds="113.95" traveltime="13.58" overlapTraveltime="14.24" density="0.52" occupancy="0.12" waitingTime="0.00" speed="11.02" departed="0" arrived="1" entered="8" left="7" laneChangedFrom="0" laneChangedTo="0"/>
        <edge id="-142575661#3" sampledSeconds="7.88" traveltime="3.26" overlapTraveltime="3.94" density="0.26" occupancy="0.05" waitingTime="0.00" speed="6.61" departed="0" arrived="0" entered="2" left="2" laneChangedFrom="0" laneChangedTo="0"/>
        <edge id="-142575661#4" sampledSeconds="6.66" traveltime="6.97" overlapTraveltime="7.37" density="0.10" occupancy="0.02" waitingTime="0.00" speed="7.20" departed="1" arrived="0" entered="0" left="1" laneChangedFrom="0" laneChangedTo="0"/>
        <edge id="-142575662#0" sampledSeconds="3.11" traveltime="2.73" overlapTraveltime="3.32" density="0.12" occupancy="0.02" waitingTime="0.00" speed="6.93" departed="0" arrived="1" entered="1" left="0" laneChangedFrom="0" laneChangedTo="0"/>
        <edge id="-142575662#1" sampledSeconds="9.83" traveltime="9.47" overlapTraveltime="9.83" density="0.06" occupancy="0.01" waitingTime="0.00" speed="12.60" departed="0" arrived="1" entered="1" left="0" laneChangedFrom="0" laneChangedTo="0"/>
        <edge id="-142575662#2" sampledSeconds="16.16" traveltime="15.70" overlapTraveltime="16.70" density="0.07" occupancy="0.02" waitingTime="0.00" speed="9.44" departed="1" arrived="0" entered="0" left="1" laneChangedFrom="0" laneChangedTo="0"/>
        <edge id="-142575672#2" sampledSeconds="378.48" traveltime="26.06" overlapTraveltime="27.03" density="10.31" occupancy="1.67" waitingTime="303.00" speed="1.12" departed="0" arrived="1" entered="14" left="13" laneChangedFrom="2" laneChangedTo="2"/>
        <edge id="-142575673" sampledSeconds="8.58" traveltime="8.20" overlapTraveltime="8.58" density="0.06" occupancy="0.01" waitingTime="0.00" speed="13.05" departed="0" arrived="1" entered="1" left="0" laneChangedFrom="0" laneChangedTo="0"/>
        <edge id="-142575674#0" sampledSeconds="27.71" traveltime="0.08" overlapTraveltime="0.96" density="41.51" occupancy="0.88" waitingTime="0.00" speed="5.71" departed="0" arrived="1" entered="29" left="28" laneChangedFrom="0" laneChangedTo="0"/>
        <edge id="-142575674#1" sampledSeconds="214.52" traveltime="6.51" overlapTraveltime="7.40" density="1.94" occupancy="0.44" waitingTime="2.00" speed="10.97" departed="0" arrived="1" entered="29" left="28" laneChangedFrom="0" laneChangedTo="0"/>
        <edge id="-142575674#4" sampledSeconds="147.82" traveltime="3.54" overlapTraveltime="4.07" density="2.53" occupancy="0.55" waitingTime="0.00" speed="11.10" departed="0" arrived="0" entered="37" left="36" laneChangedFrom="0" laneChangedTo="0"/>
        <edge id="-142575677#0" sampledSeconds="24.46" traveltime="7.91" overlapTraveltime="8.27" density="0.17" occupancy="0.04" waitingTime="0.00" speed="12.51" departed="0" arrived="3" entered="3" left="0" laneChangedFrom="0" laneChangedTo="0"/>
        <edge id="-142575677#1" sampledSeconds="35.57" traveltime="8.18" overlapTraveltime="9.02" density="0.28" occupancy="0.07" waitingTime="0.00" speed="10.34" departed="1" arrived="0" entered="3" left="4" laneChangedFrom="0" laneChangedTo="0"/>
        <edge id="-142575677#2" sampledSeconds="54.13" traveltime="12.80" overlapTraveltime="13.53" density="0.21" occupancy="0.05" waitingTime="0.00" speed="13.20" departed="0" arrived="0" entered="4" left="4" laneChangedFrom="0" laneChangedTo="0"/>
        <edge id="-142575677#3" sampledSeconds="26.92" traveltime="3.77" overlapTraveltime="4.49" density="0.48" occupancy="0.10" waitingTime="0.00" speed="9.69" departed="0" arrived="0" entered="6" left="6" laneChangedFrom="0" laneChangedTo="0"/>
        <edge id="-142575684#0" sampledSeconds="22.14" traveltime="2.14" overlapTraveltime="2.58" density="0.77" occupancy="0.16" waitingTime="0.00" speed="9.60" departed="2" arrived="0" entered="7" left="9" laneChangedFrom="0" laneChangedTo="0"/>
        <edge id="-142575684#1" sampledSeconds="10.30" traveltime="1.09" overlapTraveltime="1.54" density="0.63" occupancy="0.12" waitingTime="0.00" speed="10.57" departed="1" arrived="0" entered="6" left="7" laneChangedFrom="0" laneChangedTo="0"/>
        <edge id="-142575684#4" sampledSeconds="44.90" traveltime="6.03" overlapTraveltime="6.41" density="0.41" occupancy="0.10" waitingTime="0.00" speed="12.41" departed="0" arrived="1" entered="7" left="6" laneChangedFrom="0" laneChangedTo="0"/>
        <edge id="-142575684#5" sampledSeconds="108.76" traveltime="18.21" overlapTraveltime="18.59" density="0.38" occupancy="0.09" waitingTime="0.00" speed="10.94" departed="6" arrived="0" entered="0" left="6" laneChangedFrom="0" laneChangedTo="0"/>
        <edge id="-142575687#0" sampledSeconds="49.56" traveltime="7.76" overlapTraveltime="8.29" density="0.39" occupancy="0.09" waitingTime="0.00" speed="11.24" departed="0" arrived="2" entered="6" left="4" laneChangedFrom="0" laneChangedTo="0"/>
        <edge id="-142575687#1" sampledSeconds="16.84" traveltime="3.95" overlapTraveltime="4.35" density="0.35" occupancy="0.08" waitingTime="0.00" speed="8.82" departed="1" arrived="0" entered="3" left="4" laneChangedFrom="0" laneChangedTo="0"/>
        <edge id="-142575688#0" sampledSeconds="30.79" traveltime="4.55" overlapTraveltime="5.15" density="0.49" occupancy="0.11" waitingTime="0.00" speed="9.46" departed="0" arrived="2" entered="6" left="4" laneChangedFrom="0" laneChangedTo="0"/>
        <edge id="-142575688#1" sampledSeconds="15.09" traveltime="3.40" overlapTraveltime="3.77" density="0.26" occupancy="0.06" waitingTime="0.00" speed="11.78" departed="0" arrived="0" entered="4" left="4" laneChangedFrom="0" laneChangedTo="0"/>
        <edge id="-142575688#10" sampledSeconds="5.15" traveltime="1.38" overlapTraveltime="2.29" density="0.54" occupancy="0.09" waitingTime="0.00" speed="5.06" departed="1" arrived="1" entered="2" left="2" laneChangedFrom="0" laneChangedTo="0"/>
        <edge id="-142575688#12" sampledSeconds="0.63" traveltime="0.10" overlapTraveltime="0.58" density="0.94" occupancy="0.02" waitingTime="0.00" speed="9.48" departed="0" arrived="1" entered="2" left="1" laneChangedFrom="0" laneChangedTo="0"/>
        <edge id="-142575688#13" sampledSeconds="1.01" traveltime="0.53" overlapTraveltime="1.01" density="0.15" occupancy="0.02" waitingTime="0.00" speed="9.58" departed="0" arrived="0" entered="1" left="1" laneChangedFrom="0" laneChangedTo="0"/>
        <edge id="-142575688#14" sampledSeconds="1.19" traveltime="0.58" overlapTraveltime="1.19" density="0.23" occupancy="0.02" waitingTime="0.00" speed="7.16" departed="0" arrived="0" entered="1" left="1" laneChangedFrom="0" laneChangedTo="0"/>
        <edge id="-142575688#2" sampledSeconds="2.24" traveltime="0.24" overlapTraveltime="0.67" density="0.86" occupancy="0.05" waitingTime="0.00" speed="10.08" departed="0" arrived="1" entered="4" left="3" laneChangedFrom="0" laneChangedTo="0"/>
        <edge id="-142575688#3" sampledSeconds="6.99" traveltime="2.07" overlapTraveltime="2.53" density="0.30" occupancy="0.06" waitingTime="0.00" speed="8.39" departed="1" arrived="0" entered="2" left="3" laneChangedFrom="0" laneChangedTo="0"/>
        <edge id="-142575688#5" sampledSeconds="4.04" traveltime="0.04" overlapTraveltime="1.02" density="10.32" occupancy="0.13" waitingTime="0.00" speed="5.15" departed="1" arrived="0" entered="3" left="4" laneChangedFrom="0" laneChangedTo="0"/>
        <edge id="-142575688#6" sampledSeconds="14.71" traveltime="2.96" overlapTraveltime="3.76" density="0.34" occupancy="0.07" waitingTime="0.00" speed="9.15" departed="0" arrived="1" entered="4" left="3" laneChangedFrom="0" laneChangedTo="0"/>
        <edge id="-142575688#7" sampledSeconds="7.32" traveltime="2.08" overlapTraveltime="2.44" density="0.18" occupancy="0.04" waitingTime="0.00" speed="13.54" departed="0" arrived="0" entered="3" left="3" laneChangedFrom="0" laneChangedTo="0"/>
        <edge id="-142575688#8" sampledSeconds="8.29" traveltime="2.39" overlapTraveltime="2.76" density="0.21" occupancy="0.04" waitingTime="0.00" speed="11.65" departed="0" arrived="0" entered="3" left="3" laneChangedFrom="0" laneChangedTo="0"/>
        <edge id="-142575688#9" sampledSeconds="4.33" traveltime="0.86" overlapTraveltime="1.44" density="0.52" occupancy="0.07" waitingTime="0.00" speed="7.42" departed="0" arrived="0" entered="3" left="3" laneChangedFrom="0" laneChangedTo="0"/>
        <edge id="-142575689" sampledSeconds="54.30" traveltime="9.93" overlapTraveltime="10.98" density="0.42" occupancy="0.19" waitingTime="0.00" speed="8.49" departed="1" arrived="0" entered="4" left="5" laneChangedFrom="0" laneChangedTo="0"/>
        <edge id="-142575690#0" sampledSeconds="28.16" traveltime="2.81" overlapTraveltime="3.61" density="0.96" occupancy="0.39" waitingTime="0.00" speed="6.99" departed="1" arrived="1" entered="7" left="7" laneChangedFrom="0" laneChangedTo="0"/>
        <edge id="-142575690#2" sampledSeconds="7.67" traveltime="1.14" overlapTraveltime="1.65" density="0.56" occupancy="0.20" waitingTime="0.00" speed="8.77" departed="1" arrived="0" entered="4" left="5" laneChangedFrom="0" laneChangedTo="0"/>
        <edge id="-142575690#3" sampledSeconds="19.70" traveltime="4.64" overlapTraveltime="5.05" density="0.29" occupancy="0.14" waitingTime="0.00" speed="10.18" departed="1" arrived="0" entered="3" left="4" laneChangedFrom="0" laneChangedTo="0"/>
        <edge id="-142575690#5" sampledSeconds="10.04" traveltime="2.88" overlapTraveltime="3.35" density="0.26" occupancy="0.11" waitingTime="0.00" speed="9.47" departed="0" arrived="0" entered="3" left="3" laneChangedFrom="0" laneChangedTo="0"/>
        <edge id="-142575690#6" sampledSeconds="21.78" traveltime="6.87" overlapTraveltime="7.30" density="0.19" occupancy="0.09" waitingTime="0.00" speed="11.69" departed="0" arrived="1" entered="3" left="2" laneChangedFrom="0" laneChangedTo="0"/>
        <edge id="-142575690#7" sampledSeconds="29.93" traveltime="5.49" overlapTraveltime="6.16" density="0.37" occupancy="0.17" waitingTime="0.00" speed="9.96" departed="1" arrived="1" entered="4" left="4" laneChangedFrom="0" laneChangedTo="0"/>