<?xml version="1.0" encoding="UTF-8"?>

<!-- generated on 10.05.2019 09:05:37 by Eclipse SUMO GUI Version v1_2_0+0280-89bb845180c
<configuration xmlns:xsi="http://www.w3.org/2001/XMLSchema-instance" xsi:noNamespaceSchemaLocation="http://sumo.dlr.de/xsd/sumoConfiguration.xsd">

    <input>
        <net-file value="D:\erdm_ja\sip-svn-trunk\papers\DLR\SUMO_Conference2019\tutorial\4_demand.final\osm.net.xml"/>
        <route-files value="D:\erdm_ja\sip-svn-trunk\papers\DLR\SUMO_Conference2019\tutorial\4_demand.final\osm_pt.rou.xml,D:\erdm_ja\sip-svn-trunk\papers\DLR\SUMO_Conference2019\tutorial\4_demand.final\osm.passenger.trips.xml,D:\erdm_ja\sip-svn-trunk\papers\DLR\SUMO_Conference2019\tutorial\4_demand.final\osm.pedestrian.rou.xml,D:\erdm_ja\sip-svn-trunk\papers\DLR\SUMO_Conference2019\tutorial\4_demand.final\custom.rou.xml,D:\erdm_ja\sip-svn-trunk\papers\DLR\SUMO_Conference2019\tutorial\4_demand.final\personflow.rou.xml"/>
        <additional-files value="D:\erdm_ja\sip-svn-trunk\papers\DLR\SUMO_Conference2019\tutorial\4_demand.final\osm.poly.xml,D:\erdm_ja\sip-svn-trunk\papers\DLR\SUMO_Conference2019\tutorial\4_demand.final\osm_stops.add.xml,D:\erdm_ja\sip-svn-trunk\papers\DLR\SUMO_Conference2019\tutorial\4_demand.final\edgedata.add.xml"/>
    </input>

    <processing>
        <ignore-route-errors value="true"/>
    </processing>

    <routing>
        <device.rerouting.adaptation-steps value="180"/>
    </routing>

    <report>
        <verbose value="true"/>
        <duration-log.statistics value="true"/>
        <no-step-log value="true"/>
    </report>

    <gui_only>
        <gui-settings-file value="D:\erdm_ja\sip-svn-trunk\papers\DLR\SUMO_Conference2019\tutorial\4_demand.final\osm.view.xml"/>
    </gui_only>

</configuration>
-->

<meandata xmlns:xsi="http://www.w3.org/2001/XMLSchema-instance" xsi:noNamespaceSchemaLocation="http://sumo.dlr.de/xsd/meandata_file.xsd">
    <interval begin="0.00" end="6069.00" id="vehData">
        <edge id="-114024899" sampledSeconds="0.00" departed="0" arrived="0" entered="0" left="0" laneChangedFrom="0" laneChangedTo="0"/>
        <edge id="-114024901" sampledSeconds="0.00" departed="0" arrived="0" entered="0" left="0" laneChangedFrom="0" laneChangedTo="0"/>
        <edge id="-114024903#0" sampledSeconds="0.00" departed="0" arrived="0" entered="0" left="0" laneChangedFrom="0" laneChangedTo="0"/>
        <edge id="-114024903#1" sampledSeconds="0.00" departed="0" arrived="0" entered="0" left="0" laneChangedFrom="0" laneChangedTo="0"/>
        <edge id="-114024903#2" sampledSeconds="0.00" departed="0" arrived="0" entered="0" left="0" laneChangedFrom="0" laneChangedTo="0"/>
        <edge id="-114024903#3" sampledSeconds="0.00" departed="0" arrived="0" entered="0" left="0" laneChangedFrom="0" laneChangedTo="0"/>
        <edge id="-114024903#4" sampledSeconds="0.00" departed="0" arrived="0" entered="0" left="0" laneChangedFrom="0" laneChangedTo="0"/>
        <edge id="-114024903#5" sampledSeconds="0.00" departed="0" arrived="0" entered="0" left="0" laneChangedFrom="0" laneChangedTo="0"/>
        <edge id="-114024903#6" sampledSeconds="0.00" departed="0" arrived="0" entered="0" left="0" laneChangedFrom="0" laneChangedTo="0"/>
        <edge id="-114024904" sampledSeconds="0.00" departed="0" arrived="0" entered="0" left="0" laneChangedFrom="0" laneChangedTo="0"/>
        <edge id="-114024905" sampledSeconds="0.00" departed="0" arrived="0" entered="0" left="0" laneChangedFrom="0" laneChangedTo="0"/>
        <edge id="-114024906" sampledSeconds="0.00" departed="0" arrived="0" entered="0" left="0" laneChangedFrom="0" laneChangedTo="0"/>
        <edge id="-114207225" sampledSeconds="0.00" departed="0" arrived="0" entered="0" left="0" laneChangedFrom="0" laneChangedTo="0"/>
        <edge id="-114207227" sampledSeconds="0.00" departed="0" arrived="0" entered="0" left="0" laneChangedFrom="0" laneChangedTo="0"/>
        <edge id="-114207229" sampledSeconds="0.00" departed="0" arrived="0" entered="0" left="0" laneChangedFrom="0" laneChangedTo="0"/>
        <edge id="-114207232#0" sampledSeconds="0.00" departed="0" arrived="0" entered="0" left="0" laneChangedFrom="0" laneChangedTo="0"/>
        <edge id="-114692703#0" sampledSeconds="0.00" departed="0" arrived="0" entered="0" left="0" laneChangedFrom="0" laneChangedTo="0"/>
        <edge id="-114949101#0" sampledSeconds="0.00" departed="0" arrived="0" entered="0" left="0" laneChangedFrom="0" laneChangedTo="0"/>
        <edge id="-114952399#0" sampledSeconds="0.00" departed="0" arrived="0" entered="0" left="0" laneChangedFrom="0" laneChangedTo="0"/>
        <edge id="-114952399#1" sampledSeconds="0.00" departed="0" arrived="0" entered="0" left="0" laneChangedFrom="0" laneChangedTo="0"/>
        <edge id="-115227681" sampledSeconds="0.00" departed="0" arrived="0" entered="0" left="0" laneChangedFrom="0" laneChangedTo="0"/>
        <edge id="-115227682#0" sampledSeconds="0.00" departed="0" arrived="0" entered="0" left="0" laneChangedFrom="0" laneChangedTo="0"/>
        <edge id="-115227682#1" sampledSeconds="0.00" departed="0" arrived="0" entered="0" left="0" laneChangedFrom="0" laneChangedTo="0"/>
        <edge id="-115466410#0" sampledSeconds="0.00" departed="0" arrived="0" entered="0" left="0" laneChangedFrom="0" laneChangedTo="0"/>
        <edge id="-115466410#1" sampledSeconds="0.00" departed="0" arrived="0" entered="0" left="0" laneChangedFrom="0" laneChangedTo="0"/>
        <edge id="-116342915" sampledSeconds="0.00" departed="0" arrived="0" entered="0" left="0" laneChangedFrom="0" laneChangedTo="0"/>
        <edge id="-116391654#1" sampledSeconds="0.00" departed="0" arrived="0" entered="0" left="0" laneChangedFrom="0" laneChangedTo="0"/>
        <edge id="-122666828#0" sampledSeconds="0.00" departed="0" arrived="0" entered="0" left="0" laneChangedFrom="0" laneChangedTo="0"/>
        <edge id="-122666828#1" sampledSeconds="0.00" departed="0" arrived="0" entered="0" left="0" laneChangedFrom="0" laneChangedTo="0"/>
        <edge id="-122666828#2" sampledSeconds="0.00" departed="0" arrived="0" entered="0" left="0" laneChangedFrom="0" laneChangedTo="0"/>
        <edge id="-122868966" sampledSeconds="0.00" departed="0" arrived="0" entered="0" left="0" laneChangedFrom="0" laneChangedTo="0"/>
        <edge id="-125399001#0" sampledSeconds="0.00" departed="0" arrived="0" entered="0" left="0" laneChangedFrom="0" laneChangedTo="0"/>
        <edge id="-125399001#1" sampledSeconds="0.00" departed="0" arrived="0" entered="0" left="0" laneChangedFrom="0" laneChangedTo="0"/>
        <edge id="-125399001#2" sampledSeconds="0.00" departed="0" arrived="0" entered="0" left="0" laneChangedFrom="0" laneChangedTo="0"/>
        <edge id="-125399001#3" sampledSeconds="0.00" departed="0" arrived="0" entered="0" left="0" laneChangedFrom="0" laneChangedTo="0"/>
        <edge id="-125399002#0" sampledSeconds="0.00" departed="0" arrived="0" entered="0" left="0" laneChangedFrom="0" laneChangedTo="0"/>
        <edge id="-125399002#1" sampledSeconds="0.00" departed="0" arrived="0" entered="0" left="0" laneChangedFrom="0" laneChangedTo="0"/>
        <edge id="-128643749" sampledSeconds="0.00" departed="0" arrived="0" entered="0" left="0" laneChangedFrom="0" laneChangedTo="0"/>
        <edge id="-133858189" sampledSeconds="0.00" departed="0" arrived="0" entered="0" left="0" laneChangedFrom="0" laneChangedTo="0"/>
        <edge id="-133858466" sampledSeconds="0.00" departed="0" arrived="0" entered="0" left="0" laneChangedFrom="0" laneChangedTo="0"/>
        <edge id="-133858467#0" sampledSeconds="0.00" departed="0" arrived="0" entered="0" left="0" laneChangedFrom="0" laneChangedTo="0"/>
        <edge id="-133858467#1" sampledSeconds="0.00" departed="0" arrived="0" entered="0" left="0" laneChangedFrom="0" laneChangedTo="0"/>
        <edge id="-133858467#2" sampledSeconds="0.00" departed="0" arrived="0" entered="0" left="0" laneChangedFrom="0" laneChangedTo="0"/>
        <edge id="-137482783#0" sampledSeconds="0.00" departed="0" arrived="0" entered="0" left="0" laneChangedFrom="0" laneChangedTo="0"/>
        <edge id="-137482783#1" sampledSeconds="0.00" departed="0" arrived="0" entered="0" left="0" laneChangedFrom="0" laneChangedTo="0"/>
        <edge id="-137483014#0" sampledSeconds="71.08" traveltime="9.61" overlapTraveltime="10.34" density="0.12" occupancy="0.03" waitingTime="0.00" speed="10.34" departed="2" arrived="1" entered="5" left="6" laneChangedFrom="0" laneChangedTo="0"/>
        <edge id="-137483015#0" sampledSeconds="77.36" traveltime="7.99" overlapTraveltime="8.71" density="0.16" occupancy="0.04" waitingTime="0.00" speed="9.56" departed="2" arrived="1" entered="7" left="8" laneChangedFrom="0" laneChangedTo="0"/>
        <edge id="-137483015#2" sampledSeconds="14.16" traveltime="0.82" overlapTraveltime="1.87" density="0.40" occupancy="0.06" waitingTime="0.00" speed="5.77" departed="3" arrived="0" entered="6" left="9" laneChangedFrom="0" laneChangedTo="0"/>
        <edge id="-137483015#3" sampledSeconds="10.59" traveltime="1.41" overlapTraveltime="1.96" density="0.16" occupancy="0.03" waitingTime="0.00" speed="8.08" departed="1" arrived="1" entered="5" left="5" laneChangedFrom="0" laneChangedTo="0"/>
        <edge id="-137534616#0" sampledSeconds="1192.33" traveltime="22.39" overlapTraveltime="25.21" density="4.06" occupancy="1.86" waitingTime="705.00" speed="2.30" departed="0" arrived="0" entered="49" left="49" laneChangedFrom="0" laneChangedTo="0"/>
        <edge id="-137534616#1" sampledSeconds="467.32" traveltime="7.16" overlapTraveltime="7.80" density="0.83" occupancy="0.27" waitingTime="0.00" speed="12.87" departed="0" arrived="3" entered="60" left="57" laneChangedFrom="0" laneChangedTo="0"/>
        <edge id="-137534616#2" sampledSeconds="482.77" traveltime="5.79" overlapTraveltime="6.45" density="1.09" occupancy="0.32" waitingTime="0.00" speed="12.33" departed="2" arrived="2" entered="73" left="73" laneChangedFrom="0" laneChangedTo="0"/>
        <edge id="-137534616#3" sampledSeconds="281.79" traveltime="2.77" overlapTraveltime="3.44" density="1.38" occupancy="0.36" waitingTime="3.00" speed="11.68" departed="1" arrived="0" entered="81" left="82" laneChangedFrom="0" laneChangedTo="0"/>
        <edge id="-137534616#4" sampledSeconds="180.82" traveltime="1.52" overlapTraveltime="2.07" density="1.59" occupancy="0.38" waitingTime="0.00" speed="12.18" departed="0" arrived="3" entered="88" left="85" laneChangedFrom="0" laneChangedTo="0"/>
        <edge id="-138628388" sampledSeconds="0.00" departed="0" arrived="0" entered="0" left="0" laneChangedFrom="0" laneChangedTo="0"/>
        <edge id="-140964924#0" sampledSeconds="15.93" traveltime="0.30" overlapTraveltime="1.49" density="1.70" occupancy="0.11" waitingTime="0.00" speed="4.40" departed="4" arrived="2" entered="8" left="10" laneChangedFrom="0" laneChangedTo="0"/>
        <edge id="-140964924#1" sampledSeconds="197.23" traveltime="32.76" overlapTraveltime="33.63" density="0.15" occupancy="0.04" waitingTime="0.00" speed="6.76" departed="6" arrived="0" entered="0" left="6" laneChangedFrom="0" laneChangedTo="0"/>
        <edge id="-142575655#0" sampledSeconds="360.99" traveltime="4.65" overlapTraveltime="5.48" density="1.33" occupancy="0.30" waitingTime="3.00" speed="9.08" departed="1" arrived="0" entered="65" left="66" laneChangedFrom="0" laneChangedTo="0"/>
        <edge id="-142575655#1" sampledSeconds="255.39" traveltime="3.52" overlapTraveltime="3.94" density="0.97" occupancy="0.22" waitingTime="0.00" speed="12.31" departed="1" arrived="0" entered="64" left="65" laneChangedFrom="0" laneChangedTo="0"/>
        <edge id="-142575655#4" sampledSeconds="415.61" traveltime="4.99" overlapTraveltime="5.54" density="1.11" occupancy="0.25" waitingTime="8.00" speed="12.08" departed="0" arrived="0" entered="75" left="75" laneChangedFrom="0" laneChangedTo="0"/>
        <edge id="-142575655#5" sampledSeconds="128.64" traveltime="1.33" overlapTraveltime="1.72" density="1.25" occupancy="0.24" waitingTime="0.00" speed="12.83" departed="0" arrived="0" entered="75" left="75" laneChangedFrom="0" laneChangedTo="0"/>
        <edge id="-142575655#6" sampledSeconds="158.30" traveltime="1.74" overlapTraveltime="2.15" density="1.36" occupancy="0.27" waitingTime="0.00" speed="11.28" departed="1" arrived="0" entered="73" left="74" laneChangedFrom="0" laneChangedTo="0"/>
        <edge id="-142575655#7" sampledSeconds="465.26" traveltime="6.33" overlapTraveltime="6.85" density="0.97" occupancy="0.23" waitingTime="0.00" speed="12.26" departed="2" arrived="0" entered="66" left="68" laneChangedFrom="0" laneChangedTo="0"/>
        <edge id="-142575655#8" sampledSeconds="138.00" traveltime="1.71" overlapTraveltime="2.10" density="1.08" occupancy="0.22" waitingTime="0.00" speed="12.41" departed="1" arrived="1" entered="65" left="65" laneChangedFrom="0" laneChangedTo="0"/>
        <edge id="-142575655#9" sampledSeconds="265.96" traveltime="3.71" overlapTraveltime="4.11" density="1.03" occupancy="0.23" waitingTime="0.00" speed="11.54" departed="2" arrived="1" entered="63" left="64" laneChangedFrom="0" laneChangedTo="0"/>
        <edge id="-142575656#0" sampledSeconds="152.00" traveltime="5.51" overlapTraveltime="6.36" density="0.45" occupancy="0.10" waitingTime="0.00" speed="9.63" departed="1" arrived="0" entered="23" left="24" laneChangedFrom="0" laneChangedTo="0"/>
        <edge id="-142575656#1" sampledSeconds="26.32" traveltime="0.42" overlapTraveltime="1.07" density="0.88" occupancy="0.11" waitingTime="2.00" speed="9.23" departed="1" arrived="1" entered="24" left="24" laneChangedFrom="0" laneChangedTo="0"/>
        <edge id="-142575656#10" sampledSeconds="155.07" traveltime="1.56" overlapTraveltime="1.98" density="1.60" occupancy="0.31" waitingTime="0.00" speed="10.57" departed="3" arrived="0" entered="76" left="79" laneChangedFrom="0" laneChangedTo="0"/>
        <edge id="-142575656#11" sampledSeconds="151.23" traveltime="1.95" overlapTraveltime="2.49" density="1.14" occupancy="0.23" waitingTime="0.00" speed="10.81" departed="0" arrived="1" entered="61" left="60" laneChangedFrom="0" laneChangedTo="0"/>
        <edge id="-142575656#12" sampledSeconds="85.11" traveltime="1.09" overlapTraveltime="1.51" density="1.13" occupancy="0.20" waitingTime="0.00" speed="11.51" departed="2" arrived="0" entered="55" left="57" laneChangedFrom="0" laneChangedTo="0"/>
        <edge id="-142575656#14" sampledSeconds="158.77" traveltime="2.77" overlapTraveltime="3.18" density="0.74" occupancy="0.16" waitingTime="0.00" speed="12.71" departed="0" arrived="1" entered="50" left="49" laneChangedFrom="0" laneChangedTo="0"/>
        <edge id="-142575656#15" sampledSeconds="136.95" traveltime="2.33" overlapTraveltime="2.75" density="0.83" occupancy="0.17" waitingTime="0.00" speed="11.74" departed="1" arrived="0" entered="49" left="50" laneChangedFrom="0" laneChangedTo="0"/>
        <edge id="-142575656#3" sampledSeconds="95.01" traveltime="3.58" overlapTraveltime="3.98" density="0.34" occupancy="0.08" waitingTime="0.00" speed="12.79" departed="1" arrived="1" entered="23" left="23" laneChangedFrom="0" laneChangedTo="0"/>
        <edge id="-142575656#4" sampledSeconds="27.13" traveltime="0.62" overlapTraveltime="1.04" density="0.57" occupancy="0.09" waitingTime="0.00" speed="12.30" departed="0" arrived="2" entered="26" left="24" laneChangedFrom="0" laneChangedTo="0"/>
        <edge id="-142575656#5" sampledSeconds="43.46" traveltime="1.11" overlapTraveltime="1.50" density="0.50" occupancy="0.09" waitingTime="0.00" speed="12.78" departed="0" arrived="3" entered="29" left="26" laneChangedFrom="0" laneChangedTo="0"/>
        <edge id="-142575656#6" sampledSeconds="134.03" traveltime="4.21" overlapTraveltime="4.64" density="0.44" occupancy="0.10" waitingTime="0.00" speed="11.85" departed="1" arrived="0" entered="28" left="29" laneChangedFrom="0" laneChangedTo="0"/>
        <edge id="-142575656#7" sampledSeconds="520.87" traveltime="5.56" overlapTraveltime="6.52" density="1.61" occupancy="0.36" waitingTime="15.00" speed="8.94" departed="0" arrived="3" entered="80" left="77" laneChangedFrom="0" laneChangedTo="0"/>
        <edge id="-142575656#8" sampledSeconds="164.42" traveltime="1.60" overlapTraveltime="2.01" density="1.41" occupancy="0.28" waitingTime="0.00" speed="12.05" departed="0" arrived="3" entered="82" left="79" laneChangedFrom="0" laneChangedTo="0"/>
        <edge id="-142575656#9" sampledSeconds="59.92" traveltime="0.36" overlapTraveltime="0.76" density="2.26" occupancy="0.26" waitingTime="0.00" speed="12.35" departed="0" arrived="2" entered="79" left="77" laneChangedFrom="0" laneChangedTo="0"/>
        <edge id="-142575657#0" sampledSeconds="135.20" traveltime="6.05" overlapTraveltime="6.77" density="0.36" occupancy="0.08" waitingTime="0.00" speed="9.92" departed="0" arrived="2" entered="20" left="18" laneChangedFrom="0" laneChangedTo="0"/>
        <edge id="-142575657#1" sampledSeconds="65.85" traveltime="2.93" overlapTraveltime="3.33" density="0.36" occupancy="0.08" waitingTime="0.00" speed="10.45" departed="1" arrived="3" entered="19" left="17" laneChangedFrom="0" laneChangedTo="0"/>
        <edge id="-142575657#2" sampledSeconds="24.78" traveltime="1.10" overlapTraveltime="1.56" density="0.42" occupancy="0.07" waitingTime="0.00" speed="9.51" departed="0" arrived="1" entered="16" left="15" laneChangedFrom="0" laneChangedTo="0"/>
        <edge id="-142575657#3" sampledSeconds="88.32" traveltime="6.97" overlapTraveltime="7.36" density="0.18" occupancy="0.04" waitingTime="0.00" speed="11.47" departed="0" arrived="1" entered="12" left="11" laneChangedFrom="0" laneChangedTo="0"/>
        <edge id="-142575657#4" sampledSeconds="134.05" traveltime="18.96" overlapTraveltime="19.64" density="0.11" occupancy="0.03" waitingTime="0.00" speed="10.32" departed="7" arrived="0" entered="0" left="7" laneChangedFrom="0" laneChangedTo="0"/>
        <edge id="-142575658#0" sampledSeconds="9.34" traveltime="8.98" overlapTraveltime="9.34" density="0.01" occupancy="0.00" waitingTime="0.00" speed="11.97" departed="0" arrived="1" entered="1" left="0" laneChangedFrom="0" laneChangedTo="0"/>
        <edge id="-142575658#1" sampledSeconds="69.50" traveltime="10.62" overlapTraveltime="11.67" density="0.09" occupancy="0.02" waitingTime="0.00" speed="10.85" departed="1" arrived="1" entered="5" left="5" laneChangedFrom="0" laneChangedTo="0"/>
        <edge id="-142575658#2" sampledSeconds="32.04" traveltime="4.14" overlapTraveltime="4.71" density="0.14" occupancy="0.03" waitingTime="0.00" speed="9.34" departed="1" arrived="1" entered="6" left="6" laneChangedFrom="0" laneChangedTo="0"/>
        <edge id="-142575659#0" sampledSeconds="19.63" traveltime="2.11" overlapTraveltime="2.45" density="0.11" occupancy="0.05" waitingTime="0.00" speed="14.55" departed="0" arrived="0" entered="8" left="8" laneChangedFrom="0" laneChangedTo="0"/>
        <edge id="-142575659#1" sampledSeconds="64.33" traveltime="6.66" overlapTraveltime="7.19" density="0.13" occupancy="0.06" waitingTime="0.00" speed="11.99" departed="1" arrived="0" entered="8" left="9" laneChangedFrom="0" laneChangedTo="0"/>
        <edge id="-142575659#2" sampledSeconds="56.57" traveltime="5.96" overlapTraveltime="6.44" density="0.16" occupancy="0.07" waitingTime="0.00" speed="9.76" departed="2" arrived="2" entered="7" left="7" laneChangedFrom="0" laneChangedTo="0"/>
        <edge id="-142575661#0" sampledSeconds="61.69" traveltime="2.44" overlapTraveltime="3.29" density="0.67" occupancy="0.13" waitingTime="2.00" speed="6.15" departed="1" arrived="3" entered="18" left="16" laneChangedFrom="0" laneChangedTo="0"/>
        <edge id="-142575661#1" sampledSeconds="39.53" traveltime="2.02" overlapTraveltime="2.47" density="0.34" occupancy="0.07" waitingTime="0.00" speed="9.83" departed="0" arrived="1" entered="16" left="15" laneChangedFrom="0" laneChangedTo="0"/>
        <edge id="-142575661#2" sampledSeconds="195.53" traveltime="13.36" overlapTraveltime="13.97" density="0.21" occupancy="0.05" waitingTime="0.00" speed="11.24" departed="0" arrived="2" entered="14" left="12" laneChangedFrom="0" laneChangedTo="0"/>
        <edge id="-142575661#3" sampledSeconds="29.02" traveltime="3.69" overlapTraveltime="4.39" density="0.23" occupancy="0.05" waitingTime="0.00" speed="5.93" departed="2" arrived="1" entered="5" left="6" laneChangedFrom="0" laneChangedTo="0"/>
        <edge id="-142575661#4" sampledSeconds="12.68" traveltime="6.67" overlapTraveltime="7.01" density="0.04" occupancy="0.01" waitingTime="0.00" speed="7.56" departed="2" arrived="0" entered="0" left="2" laneChangedFrom="0" laneChangedTo="0"/>
        <edge id="-142575662#0" sampledSeconds="42.21" traveltime="2.78" overlapTraveltime="3.60" density="0.39" occupancy="0.08" waitingTime="0.00" speed="6.40" departed="1" arrived="2" entered="11" left="10" laneChangedFrom="0" laneChangedTo="0"/>
        <edge id="-142575662#1" sampledSeconds="96.33" traveltime="10.52" overlapTraveltime="10.90" density="0.13" occupancy="0.03" waitingTime="0.00" speed="11.37" departed="4" arrived="2" entered="5" left="7" laneChangedFrom="0" laneChangedTo="0"/>
        <edge id="-142575662#2" sampledSeconds="90.40" traveltime="14.87" overlapTraveltime="15.57" density="0.10" occupancy="0.02" waitingTime="0.00" speed="10.13" departed="6" arrived="0" entered="0" left="6" laneChangedFrom="0" laneChangedTo="0"/>
        <edge id="-142575672#2" sampledSeconds="1051.67" traveltime="31.94" overlapTraveltime="33.04" density="6.85" occupancy="1.11" waitingTime="850.00" speed="0.92" departed="1" arrived="1" entered="31" left="31" laneChangedFrom="9" laneChangedTo="9"/>
        <edge id="-142575673" sampledSeconds="19.13" traveltime="9.17" overlapTraveltime="9.56" density="0.03" occupancy="0.01" waitingTime="0.00" speed="11.71" departed="0" arrived="2" entered="2" left="0" laneChangedFrom="0" laneChangedTo="0"/>
        <edge id="-142575674#0" sampledSeconds="75.08" traveltime="0.09" overlapTraveltime="1.00" density="26.89" occupancy="0.57" waitingTime="0.00" speed="5.47" departed="1" arrived="2" entered="76" left="75" laneChangedFrom="0" laneChangedTo="0"/>
        <edge id="-142575674#1" sampledSeconds="592.22" traveltime="6.87" overlapTraveltime="7.82" density="1.28" occupancy="0.29" waitingTime="2.00" speed="10.39" departed="4" arrived="2" entered="72" left="74" laneChangedFrom="0" laneChangedTo="0"/>
        <edge id="-142575674#4" sampledSeconds="435.27" traveltime="3.73" overlapTraveltime="4.31" density="1.78" occupancy="0.39" waitingTime="0.00" speed="10.49" departed="0" arrived="1" entered="101" left="100" laneChangedFrom="0" laneChangedTo="0"/>
        <edge id="-142575677#0" sampledSeconds="83.20" traveltime="7.98" overlapTraveltime="8.36" density="0.14" occupancy="0.03" waitingTime="0.00" speed="12.37" departed="0" arrived="10" entered="10" left="0" laneChangedFrom="0" laneChangedTo="0"/>
        <edge id="-142575677#1" sampledSeconds="130.40" traveltime="8.41" overlapTraveltime="9.35" density="0.24" occupancy="0.06" waitingTime="0.00" speed="9.97" departed="1" arrived="0" entered="13" left="14" laneChangedFrom="0" laneChangedTo="0"/>
        <edge id="-142575677#2" sampledSeconds="231.84" traveltime="13.88" overlapTraveltime="14.52" density="0.22" occupancy="0.05" waitingTime="0.00" speed="12.30" departed="1" arrived="1" entered="15" left="15" laneChangedFrom="0" laneChangedTo="0"/>
        <edge id="-142575677#3" sampledSeconds="91.89" traveltime="4.08" overlapTraveltime="4.67" density="0.39" occupancy="0.09" waitingTime="0.00" speed="9.32" departed="2" arrived="3" entered="18" left="17" laneChangedFrom="0" laneChangedTo="0"/>
        <edge id="-142575684#0" sampledSeconds="54.79" traveltime="1.87" overlapTraveltime="2.34" density="0.46" occupancy="0.09" waitingTime="0.00" speed="10.56" departed="3" arrived="0" entered="21" left="24" laneChangedFrom="0" laneChangedTo="0"/>
        <edge id="-142575684#1" sampledSeconds="33.88" traveltime="1.08" overlapTraveltime="1.51" density="0.49" occupancy="0.09" waitingTime="0.00" speed="10.75" departed="1" arrived="2" entered="22" left="21" laneChangedFrom="0" laneChangedTo="0"/>
        <edge id="-142575684#4" sampledSeconds="144.63" traveltime="6.45" overlapTraveltime="6.89" density="0.32" occupancy="0.07" waitingTime="0.00" speed="11.55" departed="0" arrived="1" entered="21" left="20" laneChangedFrom="0" laneChangedTo="0"/>
        <edge id="-142575684#5" sampledSeconds="182.70" traveltime="18.35" overlapTraveltime="18.74" density="0.15" occupancy="0.04" waitingTime="0.00" speed="10.85" departed="10" arrived="0" entered="0" left="10" laneChangedFrom="0" laneChangedTo="0"/>
        <edge id="-142575687#0" sampledSeconds="98.48" traveltime="7.70" overlapTraveltime="8.24" density="0.18" occupancy="0.04" waitingTime="0.00" speed="11.31" departed="0" arrived="2" entered="12" left="10" laneChangedFrom="0" laneChangedTo="0"/>
        <edge id="-142575687#1" sampledSeconds="41.99" traveltime="4.55" overlapTraveltime="4.96" density="0.21" occupancy="0.05" waitingTime="0.00" speed="7.75" departed="4" arrived="0" entered="5" left="9" laneChangedFrom="0" laneChangedTo="0"/>
        <edge id="-142575688#0" sampledSeconds="97.57" traveltime="5.37" overlapTraveltime="6.18" density="0.37" occupancy="0.08" waitingTime="3.00" speed="7.88" departed="1" arrived="3" entered="15" left="13" laneChangedFrom="0" laneChangedTo="0"/>
        <edge id="-142575688#1" sampledSeconds="51.70" traveltime="3.64" overlapTraveltime="4.02" density="0.22" occupancy="0.05" waitingTime="0.00" speed="11.06" departed="1" arrived="3" entered="12" left="10" laneChangedFrom="0" laneChangedTo="0"/>
        <edge id="-142575688#10" sampledSeconds="20.92" traveltime="0.79" overlapTraveltime="1.30" density="0.52" occupancy="0.08" waitingTime="0.00" speed="8.93" departed="1" arrived="3" entered="16" left="14" laneChangedFrom="0" laneChangedTo="0"/>
        <edge id="-142575688#12" sampledSeconds="7.96" traveltime="0.06" overlapTraveltime="0.61" density="2.85" occupancy="0.06" waitingTime="0.00" speed="9.01" departed="0" arrived="1" entered="14" left="13" laneChangedFrom="0" laneChangedTo="0"/>
        <edge id="-142575688#13" sampledSeconds="15.71" traveltime="0.59" overlapTraveltime="1.36" density="0.55" occupancy="0.07" waitingTime="0.00" speed="7.14" departed="2" arrived="1" entered="11" left="12" laneChangedFrom="0" laneChangedTo="0"/>
        <edge id="-142575688#14" sampledSeconds="16.17" traveltime="0.61" overlapTraveltime="1.49" density="0.75" occupancy="0.08" waitingTime="0.00" speed="5.74" departed="2" arrived="1" entered="10" left="11" laneChangedFrom="0" laneChangedTo="0"/>
        <edge id="-142575688#2" sampledSeconds="6.44" traveltime="0.20" overlapTraveltime="0.62" density="0.59" occupancy="0.04" waitingTime="0.00" speed="10.93" departed="0" arrived="2" entered="11" left="9" laneChangedFrom="0" laneChangedTo="0"/>
        <edge id="-142575688#3" sampledSeconds="28.11" traveltime="2.17" overlapTraveltime="2.73" density="0.29" occupancy="0.06" waitingTime="0.00" speed="7.76" departed="3" arrived="0" entered="8" left="11" laneChangedFrom="0" laneChangedTo="0"/>
        <edge id="-142575688#5" sampledSeconds="24.01" traveltime="0.04" overlapTraveltime="0.93" density="14.66" occupancy="0.19" waitingTime="0.00" speed="5.67" departed="3" arrived="0" entered="23" left="26" laneChangedFrom="0" laneChangedTo="0"/>
        <edge id="-142575688#6" sampledSeconds="98.63" traveltime="3.10" overlapTraveltime="3.98" density="0.55" occupancy="0.12" waitingTime="2.00" speed="8.65" departed="1" arrived="2" entered="24" left="23" laneChangedFrom="0" laneChangedTo="0"/>
        <edge id="-142575688#7" sampledSeconds="57.71" traveltime="2.38" overlapTraveltime="2.77" density="0.34" occupancy="0.07" waitingTime="0.00" speed="11.94" departed="1" arrived="0" entered="20" left="21" laneChangedFrom="0" laneChangedTo="0"/>
        <edge id="-142575688#8" sampledSeconds="51.73" traveltime="2.37" overlapTraveltime="2.75" density="0.31" occupancy="0.07" waitingTime="0.00" speed="11.70" departed="1" arrived="1" entered="18" left="18" laneChangedFrom="0" laneChangedTo="0"/>
        <edge id="-142575688#9" sampledSeconds="19.06" traveltime="0.63" overlapTraveltime="1.08" density="0.55" occupancy="0.07" waitingTime="0.00" speed="9.91" departed="0" arrived="1" entered="18" left="17" laneChangedFrom="0" laneChangedTo="0"/>
        <edge id="-142575689" sampledSeconds="162.96" traveltime="9.36" overlapTraveltime="10.26" density="0.30" occupancy="0.14" waitingTime="0.00" speed="9.09" departed="2" arrived="2" entered="14" left="14" laneChangedFrom="0" laneChangedTo="0"/>
        <edge id="-142575690#0" sampledSeconds="64.04" traveltime="3.05" overlapTraveltime="3.91" density="0.52" occupancy="0.21" waitingTime="0.00" speed="6.46" departed="3" arrived="1" entered="14" left="16" laneChangedFrom="0" laneChangedTo="0"/>
        <edge id="-142575690#2" sampledSeconds="11.48" traveltime="0.90" overlapTraveltime="1.33" density="0.20" occupancy="0.07" waitingTime="0.00" speed="10.91" departed="1" arrived="1" entered="8" left="8" laneChangedFrom="0" laneChangedTo="0"/>
        <edge id="-142575690#3" sampledSeconds="39.77" traveltime="4.78" overlapTraveltime="5.16" density="0.14" occupancy="0.07" waitingTime="0.00" speed="9.96" departed="3" arrived="0" entered="5" left="8" laneChangedFrom="0" laneChangedTo="0"/>
        <edge id="-142575690#5" sampledSeconds="20.97" traveltime="2.48" overlapTraveltime="3.00" density="0.13" occupancy="0.05" waitingTime="0.00" speed="10.59" departed="0" arrived="1" entered="7" left="6" laneChangedFrom="0" laneChangedTo="0"/>
        <edge id="-142575690#6" sampledSeconds="74.92" traveltime="6.77" overlapTraveltime="7.58" density="0.15" occupancy="0.07" waitingTime="0.00" speed="11.26" departed="2" arrived="1" entered="8" left="9" laneChangedFrom="0" laneChangedTo="0"/>