<?xml version="1.0" encoding="UTF-8"?>

<!-- generated on 2023-04-26 16:19:46 by Eclipse SUMO sumo Version 1.17.0
<configuration xmlns:xsi="http://www.w3.org/2001/XMLSchema-instance" xsi:noNamespaceSchemaLocation="http://sumo.dlr.de/xsd/sumoConfiguration.xsd">

    <input>
        <net-file value="C:\erdm_ja\sip-svn-trunk\papers\DLR\SUMO_Conference2023\tutorial\05_runMany.final\osm.net.xml.gz"/>
        <route-files value="C:\erdm_ja\sip-svn-trunk\papers\DLR\SUMO_Conference2023\tutorial\05_runMany.final\bikes.rou.xml"/>
    </input>

    <output>
        <output-prefix value="test2.sumocfg_0\0."/>
        <tripinfo-output value="C:\erdm_ja\sip-svn-trunk\papers\DLR\SUMO_Conference2023\tutorial\05_runMany.final\tripinfos.xml"/>
        <personinfo-output value="C:\erdm_ja\sip-svn-trunk\papers\DLR\SUMO_Conference2023\tutorial\05_runMany.final\personinfos.xml"/>
        <edgedata-output value="C:\erdm_ja\sip-svn-trunk\papers\DLR\SUMO_Conference2023\tutorial\05_runMany.final\edgedata.xml"/>
        <statistic-output value="C:\erdm_ja\sip-svn-trunk\papers\DLR\SUMO_Conference2023\tutorial\05_runMany.final\stats.xml"/>
    </output>

    <processing>
        <lateral-resolution value="0"/>
        <tls.actuated.jam-threshold value="30"/>
    </processing>

    <report>
        <no-step-log value="true"/>
    </report>

    <random_number>
        <seed value="0"/>
    </random_number>

</configuration>
-->

<meandata xmlns:xsi="http://www.w3.org/2001/XMLSchema-instance" xsi:noNamespaceSchemaLocation="http://sumo.dlr.de/xsd/meandata_file.xsd">
    <interval begin="0.00" end="31135.00" id="DEFAULT_EDGEDATA">
        <edge id="-128643746#1" sampledSeconds="8267.93" traveltime="15.87" overlapTraveltime="16.47" density="8.42" laneDensity="8.42" occupancy="1.29" waitingTime="429.00" timeLoss="2491.25" speed="2.01" speedRelative="0.72" departed="0" arrived="0" entered="502" left="502" laneChangedFrom="0" laneChangedTo="0"/>
        <edge id="-142575674#5" sampledSeconds="4126.27" traveltime="7.85" overlapTraveltime="8.22" density="3.81" laneDensity="3.81" occupancy="0.58" waitingTime="0.00" timeLoss="821.25" speed="4.43" speedRelative="0.32" departed="0" arrived="0" entered="502" left="502" laneChangedFrom="0" laneChangedTo="0"/>
        <edge id="-142575688#0" sampledSeconds="12867.34" traveltime="25.17" overlapTraveltime="25.63" density="9.50" laneDensity="9.50" occupancy="1.49" waitingTime="5116.00" timeLoss="8749.77" speed="1.76" speedRelative="0.13" departed="0" arrived="0" entered="502" left="502" laneChangedFrom="0" laneChangedTo="0"/>
        <edge id="-142575688#1" sampledSeconds="10677.21" traveltime="20.86" overlapTraveltime="21.27" density="8.65" laneDensity="8.65" occupancy="1.34" waitingTime="4247.00" timeLoss="6913.80" speed="1.94" speedRelative="0.14" departed="0" arrived="0" entered="502" left="502" laneChangedFrom="0" laneChangedTo="0"/>
        <edge id="-142575688#10" sampledSeconds="1003.01" traveltime="1.58" overlapTraveltime="2.00" density="5.09" laneDensity="5.09" occupancy="0.65" waitingTime="128.00" timeLoss="279.17" speed="3.97" speedRelative="0.29" departed="0" arrived="0" entered="502" left="502" laneChangedFrom="0" laneChangedTo="0"/>
        <edge id="-142575688#2" sampledSeconds="393.71" traveltime="0.42" overlapTraveltime="0.78" density="6.99" laneDensity="6.99" occupancy="0.59" waitingTime="0.00" timeLoss="82.45" speed="4.35" speedRelative="0.31" departed="0" arrived="0" entered="502" left="502" laneChangedFrom="0" laneChangedTo="0"/>
        <edge id="-142575688#3" sampledSeconds="3630.20" traveltime="6.84" overlapTraveltime="7.23" density="8.11" laneDensity="8.11" occupancy="1.22" waitingTime="1427.00" timeLoss="2171.57" speed="2.21" speedRelative="0.16" departed="0" arrived="0" entered="502" left="502" laneChangedFrom="0" laneChangedTo="0"/>
        <edge id="-142575688#5" sampledSeconds="530.52" traveltime="0.65" overlapTraveltime="1.06" density="41.56" laneDensity="41.56" occupancy="1.30" waitingTime="267.00" timeLoss="347.05" speed="1.90" speedRelative="0.14" departed="0" arrived="0" entered="502" left="502" laneChangedFrom="0" laneChangedTo="0"/>
        <edge id="-142575688#6" sampledSeconds="20934.45" traveltime="40.71" overlapTraveltime="41.70" density="6.39" laneDensity="6.39" occupancy="1.00" waitingTime="5139.00" timeLoss="11189.56" speed="2.56" speedRelative="0.18" departed="0" arrived="0" entered="502" left="502" laneChangedFrom="0" laneChangedTo="0"/>
        <edge id="-142575688#7" sampledSeconds="1303.33" traveltime="2.24" overlapTraveltime="2.60" density="5.23" laneDensity="5.23" occupancy="0.70" waitingTime="199.00" timeLoss="427.06" speed="3.70" speedRelative="0.27" departed="0" arrived="0" entered="502" left="502" laneChangedFrom="0" laneChangedTo="0"/>
        <edge id="-142575688#8" sampledSeconds="245.43" traveltime="0.08" overlapTraveltime="0.49" density="22.52" laneDensity="22.52" occupancy="0.61" waitingTime="26.00" timeLoss="67.44" speed="3.99" speedRelative="0.29" departed="0" arrived="0" entered="502" left="502" laneChangedFrom="0" laneChangedTo="0"/>
        <edge id="-142575688#9" sampledSeconds="802.16" traveltime="1.25" overlapTraveltime="1.60" density="5.39" laneDensity="5.39" occupancy="0.67" waitingTime="91.00" timeLoss="219.81" speed="3.99" speedRelative="0.29" departed="0" arrived="0" entered="502" left="502" laneChangedFrom="0" laneChangedTo="0"/>
        <edge id="1051578539#3" sampledSeconds="113524.14" traveltime="223.50" overlapTraveltime="226.14" density="18.25" laneDensity="18.25" occupancy="2.90" waitingTime="70210.00" timeLoss="95145.22" speed="0.89" speedRelative="0.16" departed="0" arrived="0" entered="502" left="502" laneChangedFrom="0" laneChangedTo="0"/>
        <edge id="1051578542#1" sampledSeconds="297.63" traveltime="0.18" overlapTraveltime="0.59" density="47.80" laneDensity="47.80" occupancy="0.77" waitingTime="64.00" timeLoss="133.33" speed="3.04" speedRelative="0.55" departed="0" arrived="0" entered="502" left="502" laneChangedFrom="0" laneChangedTo="0"/>
        <edge id="128643746#1" sampledSeconds="11361.75" traveltime="21.83" overlapTraveltime="22.66" density="11.58" laneDensity="11.58" occupancy="1.77" waitingTime="298.00" timeLoss="5345.80" speed="1.46" speedRelative="0.53" departed="502" arrived="502" entered="502" left="502" laneChangedFrom="0" laneChangedTo="0"/>
        <edge id="142575674#4" sampledSeconds="12599.57" traveltime="24.65" overlapTraveltime="25.10" density="11.61" laneDensity="11.61" occupancy="1.82" waitingTime="5317.00" timeLoss="9272.47" speed="1.45" speedRelative="0.10" departed="0" arrived="0" entered="502" left="502" laneChangedFrom="0" laneChangedTo="0"/>
        <edge id="142575688#0" sampledSeconds="5389.58" traveltime="10.33" overlapTraveltime="10.74" density="3.98" laneDensity="3.98" occupancy="0.61" waitingTime="0.00" timeLoss="1296.19" speed="4.20" speedRelative="0.30" departed="0" arrived="0" entered="502" left="502" laneChangedFrom="0" laneChangedTo="0"/>
        <edge id="142575688#1" sampledSeconds="6644.61" traveltime="12.76" overlapTraveltime="13.24" density="5.39" laneDensity="5.39" occupancy="0.83" waitingTime="4.00" timeLoss="2904.13" speed="3.11" speedRelative="0.22" departed="0" arrived="0" entered="502" left="502" laneChangedFrom="0" laneChangedTo="0"/>
        <edge id="142575688#10" sampledSeconds="2877.69" traveltime="4.56" overlapTraveltime="5.73" density="14.60" laneDensity="14.60" occupancy="1.86" waitingTime="0.00" timeLoss="2158.26" speed="1.38" speedRelative="0.10" departed="0" arrived="0" entered="502" left="502" laneChangedFrom="0" laneChangedTo="0"/>
        <edge id="142575688#2" sampledSeconds="344.35" traveltime="0.37" overlapTraveltime="0.69" density="6.11" laneDensity="6.11" occupancy="0.52" waitingTime="0.00" timeLoss="34.99" speed="4.97" speedRelative="0.36" departed="0" arrived="0" entered="502" left="502" laneChangedFrom="0" laneChangedTo="0"/>
        <edge id="142575688#3" sampledSeconds="1828.73" traveltime="3.28" overlapTraveltime="3.64" density="4.10" laneDensity="4.10" occupancy="0.59" waitingTime="5.00" timeLoss="382.62" speed="4.38" speedRelative="0.32" departed="0" arrived="0" entered="502" left="502" laneChangedFrom="0" laneChangedTo="0"/>
        <edge id="142575688#5" sampledSeconds="270.44" traveltime="0.12" overlapTraveltime="0.54" density="19.30" laneDensity="19.30" occupancy="0.68" waitingTime="0.00" timeLoss="84.46" speed="3.81" speedRelative="0.27" departed="0" arrived="0" entered="502" left="502" laneChangedFrom="0" laneChangedTo="0"/>
        <edge id="142575688#6" sampledSeconds="23236.46" traveltime="45.75" overlapTraveltime="46.29" density="7.09" laneDensity="7.09" occupancy="1.12" waitingTime="683.00" timeLoss="13546.40" speed="2.31" speedRelative="0.17" departed="0" arrived="0" entered="502" left="502" laneChangedFrom="0" laneChangedTo="0"/>
        <edge id="142575688#7" sampledSeconds="2663.72" traveltime="4.31" overlapTraveltime="5.31" density="10.55" laneDensity="10.55" occupancy="1.46" waitingTime="122.00" timeLoss="1782.81" speed="1.83" speedRelative="0.13" departed="0" arrived="0" entered="502" left="502" laneChangedFrom="0" laneChangedTo="0"/>
        <edge id="142575688#8" sampledSeconds="370.81" traveltime="0.17" overlapTraveltime="0.74" density="34.03" laneDensity="34.03" occupancy="0.95" waitingTime="7.00" timeLoss="193.90" speed="2.64" speedRelative="0.19" departed="0" arrived="0" entered="502" left="502" laneChangedFrom="0" laneChangedTo="0"/>
        <edge id="142575688#9" sampledSeconds="1697.38" traveltime="2.35" overlapTraveltime="3.38" density="11.41" laneDensity="11.41" occupancy="1.37" waitingTime="0.00" timeLoss="1118.57" speed="1.89" speedRelative="0.14" departed="0" arrived="0" entered="502" left="502" laneChangedFrom="0" laneChangedTo="0"/>
        <edge id="143308542#5" sampledSeconds="34695.83" traveltime="68.70" overlapTraveltime="69.12" density="10.87" laneDensity="5.43" occupancy="0.86" waitingTime="14149.00" timeLoss="25189.18" speed="1.51" speedRelative="0.11" departed="0" arrived="0" entered="502" left="502" laneChangedFrom="8" laneChangedTo="8"/>
        <edge id="143308542#7" sampledSeconds="14150.64" traveltime="26.67" overlapTraveltime="28.19" density="13.07" laneDensity="6.53" occupancy="1.01" waitingTime="5471.00" timeLoss="10829.93" speed="1.29" speedRelative="0.09" departed="0" arrived="0" entered="502" left="502" laneChangedFrom="1" laneChangedTo="1"/>
        <edge id="143308542#8" sampledSeconds="23579.33" traveltime="46.51" overlapTraveltime="46.97" density="15.60" laneDensity="7.80" occupancy="1.23" waitingTime="12305.82" timeLoss="19001.71" speed="1.07" speedRelative="0.08" departed="0" arrived="0" entered="502" left="502" laneChangedFrom="2" laneChangedTo="2"/>
        <edge id="143308552#1" sampledSeconds="36027.85" traveltime="71.32" overlapTraveltime="71.77" density="14.80" laneDensity="7.40" occupancy="1.18" waitingTime="19177.00" timeLoss="28746.57" speed="1.11" speedRelative="0.08" departed="0" arrived="0" entered="502" left="502" laneChangedFrom="4" laneChangedTo="4"/>
        <edge id="152839448#0" sampledSeconds="4295.94" traveltime="9.02" overlapTraveltime="9.36" density="7.60" laneDensity="2.53" occupancy="0.40" waitingTime="455.00" timeLoss="2658.40" speed="2.11" speedRelative="0.15" departed="502" arrived="0" entered="0" left="502" laneChangedFrom="0" laneChangedTo="0"/>
        <edge id="318210389#0" sampledSeconds="9349.53" traveltime="18.22" overlapTraveltime="18.62" density="7.42" laneDensity="1.86" occupancy="0.29" waitingTime="2367.00" timeLoss="5532.84" speed="2.26" speedRelative="0.16" departed="0" arrived="0" entered="502" left="502" laneChangedFrom="0" laneChangedTo="0"/>
        <edge id="52036180#5" sampledSeconds="7773.86" traveltime="31.03" overlapTraveltime="32.05" density="5.13" laneDensity="1.71" occupancy="0.27" waitingTime="96.00" timeLoss="5558.44" speed="1.57" speedRelative="0.11" departed="0" arrived="502" entered="502" left="0" laneChangedFrom="0" laneChangedTo="0"/>
        <edge id="541676219" sampledSeconds="7274.83" traveltime="14.08" overlapTraveltime="14.49" density="3.60" laneDensity="1.20" occupancy="0.19" waitingTime="187.00" timeLoss="1245.42" speed="4.59" speedRelative="0.33" departed="0" arrived="0" entered="502" left="502" laneChangedFrom="0" laneChangedTo="0"/>
        <edge id="670062907#1" sampledSeconds="5535.69" traveltime="10.63" overlapTraveltime="11.03" density="3.65" laneDensity="1.83" occupancy="0.28" waitingTime="3.00" timeLoss="978.34" speed="4.56" speedRelative="0.33" departed="0" arrived="0" entered="502" left="502" laneChangedFrom="425" laneChangedTo="425"/>
        <edge id="670062907#2" sampledSeconds="5554.69" traveltime="10.70" overlapTraveltime="11.07" density="3.90" laneDensity="1.95" occupancy="0.30" waitingTime="1.00" timeLoss="1258.99" speed="4.28" speedRelative="0.31" departed="0" arrived="0" entered="502" left="502" laneChangedFrom="51" laneChangedTo="51"/>
        <edge id="670062907#4" sampledSeconds="13342.76" traveltime="26.17" overlapTraveltime="26.58" density="4.91" laneDensity="2.46" occupancy="0.39" waitingTime="1482.00" timeLoss="5281.17" speed="3.34" speedRelative="0.24" departed="0" arrived="0" entered="502" left="502" laneChangedFrom="2" laneChangedTo="2"/>
        <edge id="670062909#1" sampledSeconds="17669.38" traveltime="34.81" overlapTraveltime="35.20" density="7.27" laneDensity="2.42" occupancy="0.38" waitingTime="5717.00" timeLoss="10439.72" speed="2.26" speedRelative="0.16" departed="0" arrived="0" entered="502" left="502" laneChangedFrom="0" laneChangedTo="0"/>
        <edge id="670062912#1" sampledSeconds="37228.07" traveltime="73.74" overlapTraveltime="74.16" density="6.98" laneDensity="2.33" occupancy="0.37" waitingTime="10331.00" timeLoss="21531.28" speed="2.33" speedRelative="0.17" departed="0" arrived="0" entered="502" left="502" laneChangedFrom="0" laneChangedTo="0"/>
        <edge id="81639675#1" sampledSeconds="7914.51" traveltime="15.36" overlapTraveltime="15.77" density="11.28" laneDensity="3.76" occupancy="0.59" waitingTime="3900.00" timeLoss="5724.47" speed="1.53" speedRelative="0.11" departed="0" arrived="0" entered="502" left="502" laneChangedFrom="0" laneChangedTo="0"/>
        <edge id="976351540#1" sampledSeconds="12622.54" traveltime="24.74" overlapTraveltime="25.14" density="6.43" laneDensity="2.14" occupancy="0.34" waitingTime="2345.00" timeLoss="6720.48" speed="2.57" speedRelative="0.19" departed="0" arrived="0" entered="502" left="502" laneChangedFrom="0" laneChangedTo="0"/>
    </interval>
</meandata>
