<?xml version="1.0" encoding="UTF-8"?>

<!-- generated on 2023-04-26 16:19:46 by Eclipse SUMO sumo Version 1.17.0
<configuration xmlns:xsi="http://www.w3.org/2001/XMLSchema-instance" xsi:noNamespaceSchemaLocation="http://sumo.dlr.de/xsd/sumoConfiguration.xsd">

    <input>
        <net-file value="C:\erdm_ja\sip-svn-trunk\papers\DLR\SUMO_Conference2023\tutorial\05_runMany.final\osm.net.xml.gz"/>
        <route-files value="C:\erdm_ja\sip-svn-trunk\papers\DLR\SUMO_Conference2023\tutorial\05_runMany.final\bikes.rou.xml"/>
    </input>

    <output>
        <output-prefix value="test.sumocfg_0\0."/>
        <tripinfo-output value="C:\erdm_ja\sip-svn-trunk\papers\DLR\SUMO_Conference2023\tutorial\05_runMany.final\tripinfos.xml"/>
        <personinfo-output value="C:\erdm_ja\sip-svn-trunk\papers\DLR\SUMO_Conference2023\tutorial\05_runMany.final\personinfos.xml"/>
        <edgedata-output value="C:\erdm_ja\sip-svn-trunk\papers\DLR\SUMO_Conference2023\tutorial\05_runMany.final\edgedata.xml"/>
        <statistic-output value="C:\erdm_ja\sip-svn-trunk\papers\DLR\SUMO_Conference2023\tutorial\05_runMany.final\stats.xml"/>
    </output>

    <processing>
        <lateral-resolution value="0.8"/>
        <tls.actuated.jam-threshold value="30"/>
    </processing>

    <report>
        <no-step-log value="true"/>
    </report>

    <random_number>
        <seed value="0"/>
    </random_number>

</configuration>
-->

<tripinfos xmlns:xsi="http://www.w3.org/2001/XMLSchema-instance" xsi:noNamespaceSchemaLocation="http://sumo.dlr.de/xsd/tripinfo_file.xsd">
    <tripinfo id="pf_0.18_b0" depart="47.00" departLane="152839448#0_0" departPos="1.70" departPosLat="0.00" departSpeed="0.00" departDelay="19.00" arrival="243.00" arrivalLane="128643746#1_0" arrivalPos="15.76" arrivalPosLat="-1.27" arrivalSpeed="0.71" duration="196.00" routeLength="1138.02" waitingTime="0.00" waitingCount="0" stopTime="0.00" timeLoss="17.76" rerouteNo="1" devices="tripinfo_pf_0.18_b0 person_pf_0.18_b0" vType="DEFAULT_BIKETYPE" speedFactor="1.17" vaporized=""/>
    <tripinfo id="pf_0.8_b0" depart="22.00" departLane="152839448#0_0" departPos="1.70" departPosLat="0.00" departSpeed="0.00" departDelay="8.00" arrival="246.00" arrivalLane="128643746#1_0" arrivalPos="15.76" arrivalPosLat="-1.27" arrivalSpeed="0.38" duration="224.00" routeLength="1138.02" waitingTime="3.00" waitingCount="1" stopTime="0.00" timeLoss="40.63" rerouteNo="1" devices="tripinfo_pf_0.8_b0 person_pf_0.8_b0" vType="DEFAULT_BIKETYPE" speedFactor="1.13" vaporized=""/>
    <tripinfo id="pf_0.4_b0" depart="12.00" departLane="152839448#0_0" departPos="1.70" departPosLat="0.00" departSpeed="0.00" departDelay="6.00" arrival="251.00" arrivalLane="128643746#1_0" arrivalPos="15.76" arrivalPosLat="-1.27" arrivalSpeed="0.09" duration="239.00" routeLength="1138.02" waitingTime="6.00" waitingCount="3" stopTime="0.00" timeLoss="43.35" rerouteNo="1" devices="tripinfo_pf_0.4_b0 person_pf_0.4_b0" vType="DEFAULT_BIKETYPE" speedFactor="1.06" vaporized=""/>
    <tripinfo id="pf_0.5_b0" depart="15.00" departLane="152839448#0_0" departPos="1.70" departPosLat="0.00" departSpeed="0.00" departDelay="3.00" arrival="251.00" arrivalLane="128643746#1_0" arrivalPos="15.76" arrivalPosLat="1.27" arrivalSpeed="0.20" duration="236.00" routeLength="1138.02" waitingTime="2.00" waitingCount="1" stopTime="0.00" timeLoss="54.17" rerouteNo="1" devices="tripinfo_pf_0.5_b0 person_pf_0.5_b0" vType="DEFAULT_BIKETYPE" speedFactor="1.14" vaporized=""/>
    <tripinfo id="pf_0.0_b0" depart="2.00" departLane="152839448#0_0" departPos="1.70" departPosLat="0.00" departSpeed="0.00" departDelay="0.00" arrival="253.00" arrivalLane="128643746#1_0" arrivalPos="15.76" arrivalPosLat="-1.27" arrivalSpeed="0.74" duration="251.00" routeLength="1138.02" waitingTime="12.00" waitingCount="3" stopTime="0.00" timeLoss="40.61" rerouteNo="1" devices="tripinfo_pf_0.0_b0 person_pf_0.0_b0" vType="DEFAULT_BIKETYPE" speedFactor="0.99" vaporized=""/>
    <tripinfo id="pf_0.13_b0" depart="34.00" departLane="152839448#0_0" departPos="1.70" departPosLat="0.00" departSpeed="0.00" departDelay="17.00" arrival="258.00" arrivalLane="128643746#1_0" arrivalPos="15.76" arrivalPosLat="1.27" arrivalSpeed="0.09" duration="224.00" routeLength="1138.02" waitingTime="2.00" waitingCount="2" stopTime="0.00" timeLoss="25.92" rerouteNo="1" devices="tripinfo_pf_0.13_b0 person_pf_0.13_b0" vType="DEFAULT_BIKETYPE" speedFactor="1.05" vaporized=""/>
    <tripinfo id="pf_0.9_b0" depart="24.00" departLane="152839448#0_0" departPos="1.70" departPosLat="0.00" departSpeed="0.00" departDelay="9.00" arrival="259.00" arrivalLane="128643746#1_0" arrivalPos="15.76" arrivalPosLat="-1.27" arrivalSpeed="0.18" duration="235.00" routeLength="1138.02" waitingTime="0.00" waitingCount="0" stopTime="0.00" timeLoss="23.16" rerouteNo="1" devices="tripinfo_pf_0.9_b0 person_pf_0.9_b0" vType="DEFAULT_BIKETYPE" speedFactor="0.98" vaporized=""/>
    <tripinfo id="pf_0.7_b0" depart="19.00" departLane="152839448#0_0" departPos="1.70" departPosLat="0.00" departSpeed="0.00" departDelay="5.00" arrival="262.00" arrivalLane="128643746#1_0" arrivalPos="15.76" arrivalPosLat="-1.27" arrivalSpeed="0.12" duration="243.00" routeLength="1138.02" waitingTime="5.00" waitingCount="2" stopTime="0.00" timeLoss="37.48" rerouteNo="1" devices="tripinfo_pf_0.7_b0 person_pf_0.7_b0" vType="DEFAULT_BIKETYPE" speedFactor="1.01" vaporized=""/>
    <tripinfo id="pf_0.11_b0" depart="29.00" departLane="152839448#0_0" departPos="1.70" departPosLat="0.00" departSpeed="0.00" departDelay="14.00" arrival="263.00" arrivalLane="128643746#1_0" arrivalPos="15.76" arrivalPosLat="1.13" arrivalSpeed="0.28" duration="234.00" routeLength="1138.02" waitingTime="0.00" waitingCount="0" stopTime="0.00" timeLoss="30.29" rerouteNo="1" devices="tripinfo_pf_0.11_b0 person_pf_0.11_b0" vType="DEFAULT_BIKETYPE" speedFactor="1.02" vaporized=""/>
    <tripinfo id="pf_0.10_b0" depart="27.00" departLane="152839448#0_0" departPos="1.70" departPosLat="0.00" departSpeed="0.00" departDelay="12.00" arrival="265.00" arrivalLane="128643746#1_0" arrivalPos="15.76" arrivalPosLat="-1.27" arrivalSpeed="0.05" duration="238.00" routeLength="1138.02" waitingTime="2.00" waitingCount="2" stopTime="0.00" timeLoss="29.34" rerouteNo="1" devices="tripinfo_pf_0.10_b0 person_pf_0.10_b0" vType="DEFAULT_BIKETYPE" speedFactor="1.00" vaporized=""/>
    <tripinfo id="pf_0.12_b0" depart="32.00" departLane="152839448#0_0" departPos="1.70" departPosLat="0.00" departSpeed="0.00" departDelay="16.00" arrival="266.00" arrivalLane="128643746#1_0" arrivalPos="15.76" arrivalPosLat="-0.87" arrivalSpeed="0.08" duration="234.00" routeLength="1138.02" waitingTime="1.00" waitingCount="1" stopTime="0.00" timeLoss="33.29" rerouteNo="1" devices="tripinfo_pf_0.12_b0 person_pf_0.12_b0" vType="DEFAULT_BIKETYPE" speedFactor="1.03" vaporized=""/>
    <tripinfo id="pf_0.15_b0" depart="40.00" departLane="152839448#0_0" departPos="1.70" departPosLat="0.00" departSpeed="0.00" departDelay="19.00" arrival="267.00" arrivalLane="128643746#1_0" arrivalPos="15.76" arrivalPosLat="1.12" arrivalSpeed="0.41" duration="227.00" routeLength="1138.02" waitingTime="0.00" waitingCount="0" stopTime="0.00" timeLoss="25.80" rerouteNo="1" devices="tripinfo_pf_0.15_b0 person_pf_0.15_b0" vType="DEFAULT_BIKETYPE" speedFactor="1.03" vaporized=""/>
    <tripinfo id="pf_0.3_b0" depart="9.00" departLane="152839448#0_0" departPos="1.70" departPosLat="0.00" departSpeed="0.00" departDelay="5.00" arrival="269.00" arrivalLane="128643746#1_0" arrivalPos="15.76" arrivalPosLat="-0.27" arrivalSpeed="0.61" duration="260.00" routeLength="1138.02" waitingTime="10.00" waitingCount="4" stopTime="0.00" timeLoss="49.38" rerouteNo="1" devices="tripinfo_pf_0.3_b0 person_pf_0.3_b0" vType="DEFAULT_BIKETYPE" speedFactor="0.99" vaporized=""/>
    <tripinfo id="pf_0.14_b0" depart="36.00" departLane="152839448#0_0" departPos="1.70" departPosLat="0.00" departSpeed="0.00" departDelay="16.00" arrival="271.00" arrivalLane="128643746#1_0" arrivalPos="15.76" arrivalPosLat="-1.27" arrivalSpeed="0.10" duration="235.00" routeLength="1138.02" waitingTime="3.00" waitingCount="3" stopTime="0.00" timeLoss="36.97" rerouteNo="1" devices="tripinfo_pf_0.14_b0 person_pf_0.14_b0" vType="DEFAULT_BIKETYPE" speedFactor="1.05" vaporized=""/>
    <tripinfo id="pf_0.2_b0" depart="7.00" departLane="152839448#0_0" departPos="1.70" departPosLat="0.00" departSpeed="0.00" departDelay="4.00" arrival="277.00" arrivalLane="128643746#1_0" arrivalPos="15.76" arrivalPosLat="0.13" arrivalSpeed="2.34" duration="270.00" routeLength="1138.02" waitingTime="0.00" waitingCount="0" stopTime="0.00" timeLoss="42.65" rerouteNo="1" devices="tripinfo_pf_0.2_b0 person_pf_0.2_b0" vType="DEFAULT_BIKETYPE" speedFactor="0.91" vaporized=""/>
    <tripinfo id="pf_0.1_b0" depart="4.00" departLane="152839448#0_0" departPos="1.70" departPosLat="0.00" departSpeed="0.00" departDelay="2.00" arrival="278.00" arrivalLane="128643746#1_0" arrivalPos="15.76" arrivalPosLat="-1.27" arrivalSpeed="0.10" duration="274.00" routeLength="1138.02" waitingTime="5.00" waitingCount="5" stopTime="0.00" timeLoss="40.05" rerouteNo="1" devices="tripinfo_pf_0.1_b0 person_pf_0.1_b0" vType="DEFAULT_BIKETYPE" speedFactor="0.89" vaporized=""/>
    <tripinfo id="pf_0.23_b0" depart="59.00" departLane="152839448#0_0" departPos="1.70" departPosLat="0.00" departSpeed="0.00" departDelay="22.00" arrival="280.00" arrivalLane="128643746#1_0" arrivalPos="15.76" arrivalPosLat="-0.27" arrivalSpeed="0.18" duration="221.00" routeLength="1138.02" waitingTime="15.00" waitingCount="3" stopTime="0.00" timeLoss="58.39" rerouteNo="1" devices="tripinfo_pf_0.23_b0 person_pf_0.23_b0" vType="DEFAULT_BIKETYPE" speedFactor="1.28" vaporized=""/>
    <tripinfo id="pf_0.24_b0" depart="62.00" departLane="152839448#0_0" departPos="1.70" departPosLat="0.00" departSpeed="0.00" departDelay="20.00" arrival="288.00" arrivalLane="128643746#1_0" arrivalPos="15.76" arrivalPosLat="-1.27" arrivalSpeed="0.45" duration="226.00" routeLength="1138.02" waitingTime="2.00" waitingCount="1" stopTime="0.00" timeLoss="63.10" rerouteNo="1" devices="tripinfo_pf_0.24_b0 person_pf_0.24_b0" vType="DEFAULT_BIKETYPE" speedFactor="1.28" vaporized=""/>
    <tripinfo id="pf_0.19_b0" depart="49.00" departLane="152839448#0_0" departPos="1.70" departPosLat="0.00" departSpeed="0.00" departDelay="17.00" arrival="289.00" arrivalLane="128643746#1_0" arrivalPos="15.76" arrivalPosLat="1.13" arrivalSpeed="1.62" duration="240.00" routeLength="1138.02" waitingTime="25.00" waitingCount="3" stopTime="0.00" timeLoss="52.98" rerouteNo="1" devices="tripinfo_pf_0.19_b0 person_pf_0.19_b0" vType="DEFAULT_BIKETYPE" speedFactor="1.11" vaporized=""/>
    <tripinfo id="pf_0.33_b0" depart="84.00" departLane="152839448#0_0" departPos="1.70" departPosLat="0.00" departSpeed="0.00" departDelay="23.00" arrival="291.00" arrivalLane="128643746#1_0" arrivalPos="15.76" arrivalPosLat="-0.13" arrivalSpeed="0.20" duration="207.00" routeLength="1138.02" waitingTime="0.00" waitingCount="0" stopTime="0.00" timeLoss="41.28" rerouteNo="1" devices="tripinfo_pf_0.33_b0 person_pf_0.33_b0" vType="DEFAULT_BIKETYPE" speedFactor="1.25" vaporized=""/>
    <tripinfo id="pf_0.6_b0" depart="17.00" departLane="152839448#0_0" departPos="1.70" departPosLat="0.00" departSpeed="0.00" departDelay="5.00" arrival="292.00" arrivalLane="128643746#1_0" arrivalPos="15.76" arrivalPosLat="-1.27" arrivalSpeed="0.36" duration="275.00" routeLength="1138.02" waitingTime="0.00" waitingCount="0" stopTime="0.00" timeLoss="24.09" rerouteNo="1" devices="tripinfo_pf_0.6_b0 person_pf_0.6_b0" vType="DEFAULT_BIKETYPE" speedFactor="0.83" vaporized=""/>
    <tripinfo id="pf_0.21_b0" depart="54.00" departLane="152839448#0_0" departPos="1.70" departPosLat="0.00" departSpeed="0.00" departDelay="19.00" arrival="296.00" arrivalLane="128643746#1_0" arrivalPos="15.76" arrivalPosLat="-1.27" arrivalSpeed="0.09" duration="242.00" routeLength="1138.02" waitingTime="12.00" waitingCount="3" stopTime="0.00" timeLoss="47.92" rerouteNo="1" devices="tripinfo_pf_0.21_b0 person_pf_0.21_b0" vType="DEFAULT_BIKETYPE" speedFactor="1.07" vaporized=""/>
    <tripinfo id="pf_0.27_b0" depart="69.00" departLane="152839448#0_0" departPos="1.70" departPosLat="0.00" departSpeed="0.00" departDelay="22.00" arrival="300.00" arrivalLane="128643746#1_0" arrivalPos="15.76" arrivalPosLat="1.13" arrivalSpeed="0.16" duration="231.00" routeLength="1138.02" waitingTime="1.00" waitingCount="1" stopTime="0.00" timeLoss="41.24" rerouteNo="1" devices="tripinfo_pf_0.27_b0 person_pf_0.27_b0" vType="DEFAULT_BIKETYPE" speedFactor="1.09" vaporized=""/>
    <tripinfo id="pf_0.16_b0" depart="42.00" departLane="152839448#0_0" departPos="1.70" departPosLat="0.00" departSpeed="0.00" departDelay="19.00" arrival="301.00" arrivalLane="128643746#1_0" arrivalPos="15.76" arrivalPosLat="-1.27" arrivalSpeed="0.22" duration="259.00" routeLength="1138.02" waitingTime="18.00" waitingCount="2" stopTime="0.00" timeLoss="51.25" rerouteNo="1" devices="tripinfo_pf_0.16_b0 person_pf_0.16_b0" vType="DEFAULT_BIKETYPE" speedFactor="1.00" vaporized=""/>
    <tripinfo id="pf_0.28_b0" depart="71.00" departLane="152839448#0_0" departPos="1.70" departPosLat="0.00" departSpeed="0.00" departDelay="22.00" arrival="303.00" arrivalLane="128643746#1_0" arrivalPos="15.76" arrivalPosLat="-0.27" arrivalSpeed="0.23" duration="232.00" routeLength="1138.02" waitingTime="1.00" waitingCount="1" stopTime="0.00" timeLoss="37.58" rerouteNo="1" devices="tripinfo_pf_0.28_b0 person_pf_0.28_b0" vType="DEFAULT_BIKETYPE" speedFactor="1.07" vaporized=""/>
    <tripinfo id="pf_0.17_b0" depart="44.00" departLane="152839448#0_0" departPos="1.70" departPosLat="0.00" departSpeed="0.00" departDelay="18.00" arrival="304.00" arrivalLane="128643746#1_0" arrivalPos="15.76" arrivalPosLat="1.27" arrivalSpeed="0.09" duration="260.00" routeLength="1138.02" waitingTime="11.00" waitingCount="4" stopTime="0.00" timeLoss="45.42" rerouteNo="1" devices="tripinfo_pf_0.17_b0 person_pf_0.17_b0" vType="DEFAULT_BIKETYPE" speedFactor="0.97" vaporized=""/>
    <tripinfo id="pf_0.22_b0" depart="56.00" departLane="152839448#0_0" departPos="1.70" departPosLat="0.00" departSpeed="0.00" departDelay="19.00" arrival="305.00" arrivalLane="128643746#1_0" arrivalPos="15.76" arrivalPosLat="-1.27" arrivalSpeed="0.37" duration="249.00" routeLength="1138.02" waitingTime="9.00" waitingCount="3" stopTime="0.00" timeLoss="50.24" rerouteNo="1" devices="tripinfo_pf_0.22_b0 person_pf_0.22_b0" vType="DEFAULT_BIKETYPE" speedFactor="1.05" vaporized=""/>
    <tripinfo id="pf_0.26_b0" depart="67.00" departLane="152839448#0_0" departPos="1.70" departPosLat="0.00" departSpeed="0.00" departDelay="21.00" arrival="307.00" arrivalLane="128643746#1_0" arrivalPos="15.76" arrivalPosLat="-1.27" arrivalSpeed="0.32" duration="240.00" routeLength="1138.02" waitingTime="1.00" waitingCount="1" stopTime="0.00" timeLoss="40.01" rerouteNo="1" devices="tripinfo_pf_0.26_b0 person_pf_0.26_b0" vType="DEFAULT_BIKETYPE" speedFactor="1.04" vaporized=""/>
    <tripinfo id="pf_0.34_b0" depart="87.00" departLane="152839448#0_0" departPos="1.70" departPosLat="0.00" departSpeed="0.00" departDelay="23.00" arrival="308.00" arrivalLane="128643746#1_0" arrivalPos="15.76" arrivalPosLat="1.27" arrivalSpeed="2.59" duration="221.00" routeLength="1138.02" waitingTime="0.00" waitingCount="0" stopTime="0.00" timeLoss="24.26" rerouteNo="1" devices="tripinfo_pf_0.34_b0 person_pf_0.34_b0" vType="DEFAULT_BIKETYPE" speedFactor="1.06" vaporized=""/>
    <tripinfo id="pf_0.29_b0" depart="74.00" departLane="152839448#0_0" departPos="1.70" departPosLat="0.00" departSpeed="0.00" departDelay="19.00" arrival="312.00" arrivalLane="128643746#1_0" arrivalPos="15.76" arrivalPosLat="-1.27" arrivalSpeed="0.06" duration="238.00" routeLength="1138.02" waitingTime="1.00" waitingCount="1" stopTime="0.00" timeLoss="25.72" rerouteNo="1" devices="tripinfo_pf_0.29_b0 person_pf_0.29_b0" vType="DEFAULT_BIKETYPE" speedFactor="0.98" vaporized=""/>
    <tripinfo id="pf_0.32_b0" depart="82.00" departLane="152839448#0_0" departPos="1.70" departPosLat="0.00" departSpeed="0.00" departDelay="23.00" arrival="312.00" arrivalLane="128643746#1_0" arrivalPos="15.76" arrivalPosLat="0.13" arrivalSpeed="2.10" duration="230.00" routeLength="1138.02" waitingTime="0.00" waitingCount="0" stopTime="0.00" timeLoss="27.77" rerouteNo="1" devices="tripinfo_pf_0.32_b0 person_pf_0.32_b0" vType="DEFAULT_BIKETYPE" speedFactor="1.03" vaporized=""/>
    <tripinfo id="pf_0.30_b0" depart="77.00" departLane="152839448#0_0" departPos="1.70" departPosLat="0.00" departSpeed="0.00" departDelay="21.00" arrival="315.00" arrivalLane="128643746#1_0" arrivalPos="15.76" arrivalPosLat="-1.27" arrivalSpeed="0.09" duration="238.00" routeLength="1138.02" waitingTime="1.00" waitingCount="1" stopTime="0.00" timeLoss="32.86" rerouteNo="1" devices="tripinfo_pf_0.30_b0 person_pf_0.30_b0" vType="DEFAULT_BIKETYPE" speedFactor="1.01" vaporized=""/>
    <tripinfo id="pf_0.20_b0" depart="51.00" departLane="152839448#0_0" departPos="1.70" departPosLat="0.00" departSpeed="0.00" departDelay="18.00" arrival="327.00" arrivalLane="128643746#1_0" arrivalPos="15.76" arrivalPosLat="-1.27" arrivalSpeed="0.45" duration="276.00" routeLength="1138.02" waitingTime="5.00" waitingCount="1" stopTime="0.00" timeLoss="37.37" rerouteNo="1" devices="tripinfo_pf_0.20_b0 person_pf_0.20_b0" vType="DEFAULT_BIKETYPE" speedFactor="0.87" vaporized=""/>
    <tripinfo id="pf_0.38_b0" depart="96.00" departLane="152839448#0_0" departPos="1.70" departPosLat="0.00" departSpeed="0.00" departDelay="26.00" arrival="338.00" arrivalLane="128643746#1_0" arrivalPos="15.76" arrivalPosLat="-1.27" arrivalSpeed="0.23" duration="242.00" routeLength="1138.02" waitingTime="18.00" waitingCount="2" stopTime="0.00" timeLoss="43.95" rerouteNo="1" devices="tripinfo_pf_0.38_b0 person_pf_0.38_b0" vType="DEFAULT_BIKETYPE" speedFactor="1.05" vaporized=""/>
    <tripinfo id="pf_0.41_b0" depart="104.00" departLane="152839448#0_0" departPos="1.70" departPosLat="0.00" departSpeed="0.00" departDelay="32.00" arrival="343.00" arrivalLane="128643746#1_0" arrivalPos="15.76" arrivalPosLat="-1.27" arrivalSpeed="0.13" duration="239.00" routeLength="1138.02" waitingTime="9.00" waitingCount="1" stopTime="0.00" timeLoss="57.98" rerouteNo="1" devices="tripinfo_pf_0.41_b0 person_pf_0.41_b0" vType="DEFAULT_BIKETYPE" speedFactor="1.15" vaporized=""/>
    <tripinfo id="pf_0.37_b0" depart="94.00" departLane="152839448#0_0" departPos="1.70" departPosLat="0.00" departSpeed="0.00" departDelay="25.00" arrival="346.00" arrivalLane="128643746#1_0" arrivalPos="15.76" arrivalPosLat="-1.27" arrivalSpeed="0.25" duration="252.00" routeLength="1138.02" waitingTime="18.00" waitingCount="2" stopTime="0.00" timeLoss="44.72" rerouteNo="1" devices="tripinfo_pf_0.37_b0 person_pf_0.37_b0" vType="DEFAULT_BIKETYPE" speedFactor="1.00" vaporized=""/>
    <tripinfo id="pf_0.45_b0" depart="113.00" departLane="152839448#0_0" departPos="1.70" departPosLat="0.00" departSpeed="0.00" departDelay="35.00" arrival="348.00" arrivalLane="128643746#1_0" arrivalPos="15.76" arrivalPosLat="-0.40" arrivalSpeed="1.46" duration="235.00" routeLength="1138.02" waitingTime="2.00" waitingCount="2" stopTime="0.00" timeLoss="37.50" rerouteNo="1" devices="tripinfo_pf_0.45_b0 person_pf_0.45_b0" vType="DEFAULT_BIKETYPE" speedFactor="1.05" vaporized=""/>
    <tripinfo id="pf_0.25_b0" depart="64.00" departLane="152839448#0_0" departPos="1.70" departPosLat="0.00" departSpeed="0.00" departDelay="21.00" arrival="349.00" arrivalLane="128643746#1_0" arrivalPos="15.76" arrivalPosLat="0.13" arrivalSpeed="0.17" duration="285.00" routeLength="1138.02" waitingTime="19.00" waitingCount="2" stopTime="0.00" timeLoss="55.74" rerouteNo="1" devices="tripinfo_pf_0.25_b0 person_pf_0.25_b0" vType="DEFAULT_BIKETYPE" speedFactor="0.91" vaporized=""/>
    <tripinfo id="pf_0.31_b0" depart="79.00" departLane="152839448#0_0" departPos="1.70" departPosLat="0.00" departSpeed="0.00" departDelay="23.00" arrival="349.00" arrivalLane="128643746#1_0" arrivalPos="15.76" arrivalPosLat="-1.27" arrivalSpeed="0.21" duration="270.00" routeLength="1138.02" waitingTime="7.00" waitingCount="1" stopTime="0.00" timeLoss="33.49" rerouteNo="1" devices="tripinfo_pf_0.31_b0 person_pf_0.31_b0" vType="DEFAULT_BIKETYPE" speedFactor="0.88" vaporized=""/>
    <tripinfo id="pf_0.39_b0" depart="99.00" departLane="152839448#0_0" departPos="1.70" departPosLat="0.00" departSpeed="0.00" departDelay="29.00" arrival="352.00" arrivalLane="128643746#1_0" arrivalPos="15.76" arrivalPosLat="-0.47" arrivalSpeed="0.14" duration="253.00" routeLength="1138.02" waitingTime="12.00" waitingCount="2" stopTime="0.00" timeLoss="41.06" rerouteNo="1" devices="tripinfo_pf_0.39_b0 person_pf_0.39_b0" vType="DEFAULT_BIKETYPE" speedFactor="0.98" vaporized=""/>
    <tripinfo id="pf_0.42_b0" depart="106.00" departLane="152839448#0_0" departPos="1.70" departPosLat="0.00" departSpeed="0.00" departDelay="31.00" arrival="356.00" arrivalLane="128643746#1_0" arrivalPos="15.76" arrivalPosLat="-1.27" arrivalSpeed="0.16" duration="250.00" routeLength="1138.02" waitingTime="5.00" waitingCount="1" stopTime="0.00" timeLoss="42.95" rerouteNo="1" devices="tripinfo_pf_0.42_b0 person_pf_0.42_b0" vType="DEFAULT_BIKETYPE" speedFactor="1.00" vaporized=""/>
    <tripinfo id="pf_0.35_b0" depart="89.00" departLane="152839448#0_0" departPos="1.70" departPosLat="0.00" departSpeed="0.00" departDelay="24.00" arrival="364.00" arrivalLane="128643746#1_0" arrivalPos="15.76" arrivalPosLat="-1.27" arrivalSpeed="0.26" duration="275.00" routeLength="1138.02" waitingTime="14.00" waitingCount="2" stopTime="0.00" timeLoss="43.27" rerouteNo="1" devices="tripinfo_pf_0.35_b0 person_pf_0.35_b0" vType="DEFAULT_BIKETYPE" speedFactor="0.90" vaporized=""/>
    <tripinfo id="pf_0.36_b0" depart="92.00" departLane="152839448#0_0" departPos="1.70" departPosLat="0.00" departSpeed="0.00" departDelay="23.00" arrival="369.00" arrivalLane="128643746#1_0" arrivalPos="15.76" arrivalPosLat="-1.27" arrivalSpeed="0.21" duration="277.00" routeLength="1138.02" waitingTime="16.00" waitingCount="3" stopTime="0.00" timeLoss="60.09" rerouteNo="1" devices="tripinfo_pf_0.36_b0 person_pf_0.36_b0" vType="DEFAULT_BIKETYPE" speedFactor="0.96" vaporized=""/>
    <tripinfo id="pf_0.40_b0" depart="101.00" departLane="152839448#0_0" departPos="1.70" departPosLat="0.00" departSpeed="0.00" departDelay="31.00" arrival="370.00" arrivalLane="128643746#1_0" arrivalPos="15.76" arrivalPosLat="-0.87" arrivalSpeed="0.06" duration="269.00" routeLength="1138.02" waitingTime="7.00" waitingCount="2" stopTime="0.00" timeLoss="38.01" rerouteNo="1" devices="tripinfo_pf_0.40_b0 person_pf_0.40_b0" vType="DEFAULT_BIKETYPE" speedFactor="0.90" vaporized=""/>
    <tripinfo id="pf_0.43_b0" depart="109.00" departLane="152839448#0_0" departPos="1.70" departPosLat="0.00" departSpeed="0.00" departDelay="33.00" arrival="374.00" arrivalLane="128643746#1_0" arrivalPos="15.76" arrivalPosLat="-1.27" arrivalSpeed="0.09" duration="265.00" routeLength="1138.02" waitingTime="3.00" waitingCount="2" stopTime="0.00" timeLoss="32.68" rerouteNo="1" devices="tripinfo_pf_0.43_b0 person_pf_0.43_b0" vType="DEFAULT_BIKETYPE" speedFactor="0.89" vaporized=""/>
    <tripinfo id="pf_0.46_b0" depart="116.00" departLane="152839448#0_0" departPos="1.70" departPosLat="0.00" departSpeed="0.00" departDelay="36.00" arrival="379.00" arrivalLane="128643746#1_0" arrivalPos="15.76" arrivalPosLat="-1.27" arrivalSpeed="0.14" duration="263.00" routeLength="1138.02" waitingTime="33.00" waitingCount="4" stopTime="0.00" timeLoss="69.00" rerouteNo="1" devices="tripinfo_pf_0.46_b0 person_pf_0.46_b0" vType="DEFAULT_BIKETYPE" speedFactor="1.07" vaporized=""/>
    <tripinfo id="pf_0.51_b0" depart="128.00" departLane="152839448#0_0" departPos="1.70" departPosLat="0.00" departSpeed="0.00" departDelay="35.00" arrival="384.00" arrivalLane="128643746#1_0" arrivalPos="15.76" arrivalPosLat="0.00" arrivalSpeed="0.15" duration="256.00" routeLength="1138.02" waitingTime="22.00" waitingCount="3" stopTime="0.00" timeLoss="84.03" rerouteNo="1" devices="tripinfo_pf_0.51_b0 person_pf_0.51_b0" vType="DEFAULT_BIKETYPE" speedFactor="1.21" vaporized=""/>
    <tripinfo id="pf_0.53_b0" depart="133.00" departLane="152839448#0_0" departPos="1.70" departPosLat="0.00" departSpeed="0.00" departDelay="35.00" arrival="384.00" arrivalLane="128643746#1_0" arrivalPos="15.76" arrivalPosLat="-1.27" arrivalSpeed="0.07" duration="251.00" routeLength="1138.02" waitingTime="15.00" waitingCount="4" stopTime="0.00" timeLoss="48.15" rerouteNo="1" devices="tripinfo_pf_0.53_b0 person_pf_0.53_b0" vType="DEFAULT_BIKETYPE" speedFactor="1.02" vaporized=""/>
    <tripinfo id="pf_0.58_b0" depart="146.00" departLane="152839448#0_0" departPos="1.70" departPosLat="0.00" departSpeed="0.00" departDelay="34.00" arrival="384.00" arrivalLane="128643746#1_0" arrivalPos="15.76" arrivalPosLat="1.27" arrivalSpeed="0.11" duration="238.00" routeLength="1138.02" waitingTime="7.00" waitingCount="2" stopTime="0.00" timeLoss="46.47" rerouteNo="1" devices="tripinfo_pf_0.58_b0 person_pf_0.58_b0" vType="DEFAULT_BIKETYPE" speedFactor="1.09" vaporized=""/>
    <tripinfo id="pf_0.48_b0" depart="121.00" departLane="152839448#0_0" departPos="1.70" departPosLat="0.00" departSpeed="0.00" departDelay="35.00" arrival="386.00" arrivalLane="128643746#1_0" arrivalPos="15.76" arrivalPosLat="-1.27" arrivalSpeed="0.08" duration="265.00" routeLength="1138.02" waitingTime="23.00" waitingCount="5" stopTime="0.00" timeLoss="68.36" rerouteNo="1" devices="tripinfo_pf_0.48_b0 person_pf_0.48_b0" vType="DEFAULT_BIKETYPE" speedFactor="1.06" vaporized=""/>
    <tripinfo id="pf_0.52_b0" depart="131.00" departLane="152839448#0_0" departPos="1.70" departPosLat="0.00" departSpeed="0.00" departDelay="34.00" arrival="386.00" arrivalLane="128643746#1_0" arrivalPos="15.76" arrivalPosLat="1.27" arrivalSpeed="1.34" duration="255.00" routeLength="1138.02" waitingTime="12.00" waitingCount="3" stopTime="0.00" timeLoss="55.76" rerouteNo="1" devices="tripinfo_pf_0.52_b0 person_pf_0.52_b0" vType="DEFAULT_BIKETYPE" speedFactor="1.04" vaporized=""/>
    <tripinfo id="pf_0.56_b0" depart="141.00" departLane="152839448#0_0" departPos="1.70" departPosLat="0.00" departSpeed="0.00" departDelay="31.00" arrival="388.00" arrivalLane="128643746#1_0" arrivalPos="15.76" arrivalPosLat="-1.27" arrivalSpeed="0.08" duration="247.00" routeLength="1138.02" waitingTime="6.00" waitingCount="4" stopTime="0.00" timeLoss="43.87" rerouteNo="1" devices="tripinfo_pf_0.56_b0 person_pf_0.56_b0" vType="DEFAULT_BIKETYPE" speedFactor="1.02" vaporized=""/>
    <tripinfo id="pf_0.47_b0" depart="118.00" departLane="152839448#0_0" departPos="1.70" departPosLat="0.00" departSpeed="0.00" departDelay="37.00" arrival="390.00" arrivalLane="128643746#1_0" arrivalPos="15.76" arrivalPosLat="-1.27" arrivalSpeed="0.10" duration="272.00" routeLength="1138.02" waitingTime="25.00" waitingCount="6" stopTime="0.00" timeLoss="76.17" rerouteNo="1" devices="tripinfo_pf_0.47_b0 person_pf_0.47_b0" vType="DEFAULT_BIKETYPE" speedFactor="1.06" vaporized=""/>
    <tripinfo id="pf_0.44_b0" depart="111.00" departLane="152839448#0_0" departPos="1.70" departPosLat="0.00" departSpeed="0.00" departDelay="33.00" arrival="393.00" arrivalLane="128643746#1_0" arrivalPos="15.76" arrivalPosLat="-0.27" arrivalSpeed="0.42" duration="282.00" routeLength="1138.02" waitingTime="16.00" waitingCount="1" stopTime="0.00" timeLoss="58.41" rerouteNo="1" devices="tripinfo_pf_0.44_b0 person_pf_0.44_b0" vType="DEFAULT_BIKETYPE" speedFactor="0.93" vaporized=""/>
    <tripinfo id="pf_0.54_b0" depart="135.00" departLane="152839448#0_0" departPos="1.70" departPosLat="0.00" departSpeed="0.00" departDelay="26.00" arrival="394.00" arrivalLane="128643746#1_0" arrivalPos="15.76" arrivalPosLat="-1.27" arrivalSpeed="0.17" duration="259.00" routeLength="1138.02" waitingTime="8.00" waitingCount="3" stopTime="0.00" timeLoss="50.77" rerouteNo="1" devices="tripinfo_pf_0.54_b0 person_pf_0.54_b0" vType="DEFAULT_BIKETYPE" speedFactor="1.00" vaporized=""/>
    <tripinfo id="pf_0.75_b0" depart="190.00" departLane="152839448#0_0" departPos="1.70" departPosLat="0.00" departSpeed="0.00" departDelay="55.00" arrival="394.00" arrivalLane="128643746#1_0" arrivalPos="15.76" arrivalPosLat="1.27" arrivalSpeed="0.16" duration="204.00" routeLength="1138.02" waitingTime="1.00" waitingCount="1" stopTime="0.00" timeLoss="29.37" rerouteNo="1" devices="tripinfo_pf_0.75_b0 person_pf_0.75_b0" vType="DEFAULT_BIKETYPE" speedFactor="1.19" vaporized=""/>
    <tripinfo id="pf_0.60_b0" depart="151.00" departLane="152839448#0_0" departPos="1.70" departPosLat="0.00" departSpeed="0.00" departDelay="38.00" arrival="397.00" arrivalLane="128643746#1_0" arrivalPos="15.76" arrivalPosLat="-1.27" arrivalSpeed="0.10" duration="246.00" routeLength="1138.02" waitingTime="14.00" waitingCount="1" stopTime="0.00" timeLoss="48.54" rerouteNo="1" devices="tripinfo_pf_0.60_b0 person_pf_0.60_b0" vType="DEFAULT_BIKETYPE" speedFactor="1.05" vaporized=""/>
    <tripinfo id="pf_0.70_b0" depart="177.00" departLane="152839448#0_0" departPos="1.70" departPosLat="0.00" departSpeed="0.00" departDelay="48.00" arrival="399.00" arrivalLane="128643746#1_0" arrivalPos="15.76" arrivalPosLat="1.27" arrivalSpeed="0.08" duration="222.00" routeLength="1138.02" waitingTime="3.00" waitingCount="2" stopTime="0.00" timeLoss="38.89" rerouteNo="1" devices="tripinfo_pf_0.70_b0 person_pf_0.70_b0" vType="DEFAULT_BIKETYPE" speedFactor="1.13" vaporized=""/>