<?xml version="1.0" encoding="UTF-8"?>

<!-- generated on 2023-04-26 16:19:46 by Eclipse SUMO sumo Version 1.17.0
<configuration xmlns:xsi="http://www.w3.org/2001/XMLSchema-instance" xsi:noNamespaceSchemaLocation="http://sumo.dlr.de/xsd/sumoConfiguration.xsd">

    <input>
        <net-file value="C:\erdm_ja\sip-svn-trunk\papers\DLR\SUMO_Conference2023\tutorial\05_runMany.final\osm.net.xml.gz"/>
        <route-files value="C:\erdm_ja\sip-svn-trunk\papers\DLR\SUMO_Conference2023\tutorial\05_runMany.final\bikes.rou.xml"/>
    </input>

    <output>
        <output-prefix value="test.sumocfg_0\1."/>
        <tripinfo-output value="C:\erdm_ja\sip-svn-trunk\papers\DLR\SUMO_Conference2023\tutorial\05_runMany.final\tripinfos.xml"/>
        <personinfo-output value="C:\erdm_ja\sip-svn-trunk\papers\DLR\SUMO_Conference2023\tutorial\05_runMany.final\personinfos.xml"/>
        <edgedata-output value="C:\erdm_ja\sip-svn-trunk\papers\DLR\SUMO_Conference2023\tutorial\05_runMany.final\edgedata.xml"/>
        <statistic-output value="C:\erdm_ja\sip-svn-trunk\papers\DLR\SUMO_Conference2023\tutorial\05_runMany.final\stats.xml"/>
    </output>

    <processing>
        <lateral-resolution value="0.8"/>
        <tls.actuated.jam-threshold value="30"/>
    </processing>

    <report>
        <no-step-log value="true"/>
    </report>

    <random_number>
        <seed value="1"/>
    </random_number>

</configuration>
-->

<meandata xmlns:xsi="http://www.w3.org/2001/XMLSchema-instance" xsi:noNamespaceSchemaLocation="http://sumo.dlr.de/xsd/meandata_file.xsd">
    <interval begin="0.00" end="30185.00" id="DEFAULT_EDGEDATA">
        <edge id="-128643746#1" sampledSeconds="6496.14" traveltime="12.92" overlapTraveltime="13.51" density="6.83" laneDensity="6.83" occupancy="1.04" waitingTime="0.00" timeLoss="996.33" speed="2.45" speedRelative="0.88" departed="0" arrived="0" entered="481" left="481" laneChangedFrom="0" laneChangedTo="0"/>
        <edge id="-142575674#5" sampledSeconds="3527.25" traveltime="7.01" overlapTraveltime="7.33" density="3.35" laneDensity="3.35" occupancy="0.51" waitingTime="0.00" timeLoss="335.52" speed="4.97" speedRelative="0.36" departed="0" arrived="0" entered="481" left="481" laneChangedFrom="0" laneChangedTo="0"/>
        <edge id="-142575688#0" sampledSeconds="4290.83" traveltime="8.60" overlapTraveltime="8.92" density="3.27" laneDensity="3.27" occupancy="0.50" waitingTime="0.00" timeLoss="371.20" speed="5.06" speedRelative="0.36" departed="0" arrived="0" entered="481" left="481" laneChangedFrom="0" laneChangedTo="0"/>
        <edge id="-142575688#1" sampledSeconds="3839.98" traveltime="7.67" overlapTraveltime="7.98" density="3.21" laneDensity="3.21" occupancy="0.49" waitingTime="0.00" timeLoss="257.49" speed="5.16" speedRelative="0.37" departed="0" arrived="0" entered="481" left="481" laneChangedFrom="0" laneChangedTo="0"/>
        <edge id="-142575688#10" sampledSeconds="737.93" traveltime="1.22" overlapTraveltime="1.53" density="3.86" laneDensity="3.86" occupancy="0.49" waitingTime="0.00" timeLoss="48.89" speed="5.17" speedRelative="0.37" departed="0" arrived="0" entered="481" left="481" laneChangedFrom="0" laneChangedTo="0"/>
        <edge id="-142575688#2" sampledSeconds="317.52" traveltime="0.35" overlapTraveltime="0.66" density="5.81" laneDensity="5.81" occupancy="0.49" waitingTime="0.00" timeLoss="21.22" speed="5.17" speedRelative="0.37" departed="0" arrived="0" entered="481" left="481" laneChangedFrom="0" laneChangedTo="0"/>
        <edge id="-142575688#3" sampledSeconds="1488.42" traveltime="2.78" overlapTraveltime="3.09" density="3.43" laneDensity="3.43" occupancy="0.49" waitingTime="0.00" timeLoss="99.91" speed="5.16" speedRelative="0.37" departed="0" arrived="0" entered="481" left="481" laneChangedFrom="0" laneChangedTo="0"/>
        <edge id="-142575688#5" sampledSeconds="197.26" traveltime="0.08" overlapTraveltime="0.41" density="15.94" laneDensity="15.94" occupancy="0.52" waitingTime="0.00" timeLoss="22.61" speed="4.90" speedRelative="0.35" departed="0" arrived="0" entered="481" left="481" laneChangedFrom="0" laneChangedTo="0"/>
        <edge id="-142575688#6" sampledSeconds="10011.42" traveltime="20.45" overlapTraveltime="20.81" density="3.15" laneDensity="3.15" occupancy="0.50" waitingTime="0.00" timeLoss="735.00" speed="5.13" speedRelative="0.37" departed="0" arrived="0" entered="481" left="481" laneChangedFrom="0" laneChangedTo="0"/>
        <edge id="-142575688#7" sampledSeconds="894.68" traveltime="1.55" overlapTraveltime="1.86" density="3.70" laneDensity="3.70" occupancy="0.49" waitingTime="0.00" timeLoss="60.53" speed="5.16" speedRelative="0.37" departed="0" arrived="0" entered="481" left="481" laneChangedFrom="0" laneChangedTo="0"/>
        <edge id="-142575688#8" sampledSeconds="181.63" traveltime="0.07" overlapTraveltime="0.38" density="17.19" laneDensity="17.19" occupancy="0.49" waitingTime="0.00" timeLoss="12.20" speed="5.16" speedRelative="0.37" departed="0" arrived="0" entered="481" left="481" laneChangedFrom="0" laneChangedTo="0"/>
        <edge id="-142575688#9" sampledSeconds="596.10" traveltime="0.93" overlapTraveltime="1.24" density="4.13" laneDensity="4.13" occupancy="0.50" waitingTime="0.00" timeLoss="41.74" speed="5.15" speedRelative="0.37" departed="0" arrived="0" entered="481" left="481" laneChangedFrom="0" laneChangedTo="0"/>
        <edge id="1051578539#3" sampledSeconds="42803.70" traveltime="85.99" overlapTraveltime="89.06" density="7.10" laneDensity="7.10" occupancy="1.12" waitingTime="18659.21" timeLoss="25322.85" speed="2.26" speedRelative="0.41" departed="0" arrived="0" entered="481" left="481" laneChangedFrom="0" laneChangedTo="0"/>
        <edge id="1051578542#1" sampledSeconds="232.57" traveltime="0.06" overlapTraveltime="0.48" density="38.52" laneDensity="38.52" occupancy="0.68" waitingTime="0.00" timeLoss="76.17" speed="3.72" speedRelative="0.67" departed="0" arrived="0" entered="481" left="481" laneChangedFrom="0" laneChangedTo="0"/>
        <edge id="128643746#1" sampledSeconds="7986.19" traveltime="15.97" overlapTraveltime="16.63" density="8.39" laneDensity="8.39" occupancy="1.29" waitingTime="104.00" timeLoss="2220.16" speed="1.99" speedRelative="0.72" departed="481" arrived="481" entered="481" left="481" laneChangedFrom="0" laneChangedTo="0"/>
        <edge id="142575674#4" sampledSeconds="5941.70" traveltime="11.84" overlapTraveltime="12.35" density="5.65" laneDensity="5.65" occupancy="0.87" waitingTime="1440.00" timeLoss="2774.54" speed="2.95" speedRelative="0.21" departed="0" arrived="0" entered="481" left="481" laneChangedFrom="0" laneChangedTo="0"/>
        <edge id="142575688#0" sampledSeconds="4366.08" traveltime="8.76" overlapTraveltime="9.08" density="3.32" laneDensity="3.32" occupancy="0.51" waitingTime="0.00" timeLoss="412.99" speed="4.97" speedRelative="0.36" departed="0" arrived="0" entered="481" left="481" laneChangedFrom="0" laneChangedTo="0"/>
        <edge id="142575688#1" sampledSeconds="6223.08" traveltime="12.39" overlapTraveltime="12.94" density="5.20" laneDensity="5.20" occupancy="0.81" waitingTime="407.00" timeLoss="2610.81" speed="3.19" speedRelative="0.23" departed="0" arrived="0" entered="481" left="481" laneChangedFrom="0" laneChangedTo="0"/>
        <edge id="142575688#10" sampledSeconds="748.79" traveltime="1.24" overlapTraveltime="1.56" density="3.92" laneDensity="3.92" occupancy="0.50" waitingTime="0.00" timeLoss="54.02" speed="5.09" speedRelative="0.37" departed="0" arrived="0" entered="481" left="481" laneChangedFrom="0" laneChangedTo="0"/>
        <edge id="142575688#2" sampledSeconds="413.13" traveltime="0.48" overlapTraveltime="0.86" density="7.56" laneDensity="7.56" occupancy="0.63" waitingTime="0.00" timeLoss="114.37" speed="3.97" speedRelative="0.29" departed="0" arrived="0" entered="481" left="481" laneChangedFrom="0" laneChangedTo="0"/>
        <edge id="142575688#3" sampledSeconds="1587.26" traveltime="2.97" overlapTraveltime="3.30" density="3.67" laneDensity="3.67" occupancy="0.53" waitingTime="0.00" timeLoss="190.71" speed="4.83" speedRelative="0.35" departed="0" arrived="0" entered="481" left="481" laneChangedFrom="0" laneChangedTo="0"/>
        <edge id="142575688#5" sampledSeconds="192.14" traveltime="0.09" overlapTraveltime="0.40" density="14.15" laneDensity="14.15" occupancy="0.50" waitingTime="0.00" timeLoss="12.53" speed="5.13" speedRelative="0.37" departed="0" arrived="0" entered="481" left="481" laneChangedFrom="0" laneChangedTo="0"/>
        <edge id="142575688#6" sampledSeconds="10069.79" traveltime="20.62" overlapTraveltime="20.94" density="3.17" laneDensity="3.17" occupancy="0.50" waitingTime="0.00" timeLoss="711.87" speed="5.10" speedRelative="0.37" departed="0" arrived="0" entered="481" left="481" laneChangedFrom="0" laneChangedTo="0"/>
        <edge id="142575688#7" sampledSeconds="917.02" traveltime="1.59" overlapTraveltime="1.91" density="3.75" laneDensity="3.75" occupancy="0.50" waitingTime="0.00" timeLoss="66.30" speed="5.09" speedRelative="0.37" departed="0" arrived="0" entered="481" left="481" laneChangedFrom="0" laneChangedTo="0"/>
        <edge id="142575688#8" sampledSeconds="189.25" traveltime="0.07" overlapTraveltime="0.39" density="17.91" laneDensity="17.91" occupancy="0.51" waitingTime="1.00" timeLoss="18.41" speed="4.96" speedRelative="0.36" departed="0" arrived="0" entered="481" left="481" laneChangedFrom="0" laneChangedTo="0"/>
        <edge id="142575688#9" sampledSeconds="602.46" traveltime="0.94" overlapTraveltime="1.25" density="4.18" laneDensity="4.18" occupancy="0.50" waitingTime="0.00" timeLoss="43.49" speed="5.09" speedRelative="0.37" departed="0" arrived="0" entered="481" left="481" laneChangedFrom="0" laneChangedTo="0"/>
        <edge id="143308542#5" sampledSeconds="9846.56" traveltime="20.15" overlapTraveltime="20.47" density="3.18" laneDensity="1.59" occupancy="0.25" waitingTime="0.00" timeLoss="796.92" speed="5.09" speedRelative="0.37" departed="0" arrived="0" entered="481" left="481" laneChangedFrom="9" laneChangedTo="9"/>
        <edge id="143308542#7" sampledSeconds="3439.66" traveltime="6.84" overlapTraveltime="7.15" density="3.28" laneDensity="1.64" occupancy="0.25" waitingTime="0.00" timeLoss="278.58" speed="5.09" speedRelative="0.37" departed="0" arrived="0" entered="481" left="481" laneChangedFrom="0" laneChangedTo="0"/>
        <edge id="143308542#8" sampledSeconds="6565.06" traveltime="13.20" overlapTraveltime="13.65" density="4.48" laneDensity="2.24" occupancy="0.35" waitingTime="1040.00" timeLoss="2207.51" speed="3.67" speedRelative="0.26" departed="0" arrived="0" entered="481" left="481" laneChangedFrom="1" laneChangedTo="1"/>
        <edge id="143308552#1" sampledSeconds="9141.32" traveltime="18.58" overlapTraveltime="19.00" density="3.87" laneDensity="1.94" occupancy="0.30" waitingTime="846.00" timeLoss="2210.07" speed="4.20" speedRelative="0.30" departed="0" arrived="0" entered="481" left="481" laneChangedFrom="2" laneChangedTo="2"/>
        <edge id="152839448#0" sampledSeconds="3549.90" traveltime="7.71" overlapTraveltime="8.08" density="6.48" laneDensity="2.16" occupancy="0.34" waitingTime="265.00" timeLoss="1968.49" speed="2.45" speedRelative="0.18" departed="481" arrived="0" entered="0" left="481" laneChangedFrom="0" laneChangedTo="0"/>
        <edge id="318210389#0" sampledSeconds="7364.91" traveltime="14.81" overlapTraveltime="15.31" density="6.03" laneDensity="1.51" occupancy="0.23" waitingTime="1855.00" timeLoss="3679.04" speed="2.75" speedRelative="0.20" departed="0" arrived="0" entered="481" left="481" laneChangedFrom="0" laneChangedTo="0"/>
        <edge id="52036180#5" sampledSeconds="6606.21" traveltime="27.52" overlapTraveltime="28.42" density="4.50" laneDensity="1.50" occupancy="0.23" waitingTime="83.00" timeLoss="4497.22" speed="1.77" speedRelative="0.13" departed="0" arrived="481" entered="481" left="0" laneChangedFrom="0" laneChangedTo="0"/>
        <edge id="541676219" sampledSeconds="6300.05" traveltime="12.78" overlapTraveltime="13.10" density="3.22" laneDensity="1.07" occupancy="0.17" waitingTime="0.00" timeLoss="477.30" speed="5.07" speedRelative="0.37" departed="0" arrived="0" entered="481" left="481" laneChangedFrom="0" laneChangedTo="0"/>
        <edge id="670062907#1" sampledSeconds="5706.27" traveltime="11.44" overlapTraveltime="11.87" density="3.89" laneDensity="1.94" occupancy="0.30" waitingTime="68.00" timeLoss="1305.53" speed="4.23" speedRelative="0.30" departed="0" arrived="0" entered="481" left="481" laneChangedFrom="256" laneChangedTo="256"/>
        <edge id="670062907#2" sampledSeconds="5434.95" traveltime="10.97" overlapTraveltime="11.30" density="3.94" laneDensity="1.97" occupancy="0.30" waitingTime="97.00" timeLoss="1286.64" speed="4.19" speedRelative="0.30" departed="0" arrived="0" entered="481" left="481" laneChangedFrom="171" laneChangedTo="171"/>
        <edge id="670062907#4" sampledSeconds="9915.61" traveltime="20.19" overlapTraveltime="20.61" density="3.76" laneDensity="1.88" occupancy="0.30" waitingTime="742.00" timeLoss="2130.34" speed="4.31" speedRelative="0.31" departed="0" arrived="0" entered="481" left="481" laneChangedFrom="3" laneChangedTo="3"/>
        <edge id="670062909#1" sampledSeconds="11693.81" traveltime="23.90" overlapTraveltime="24.31" density="4.96" laneDensity="1.65" occupancy="0.26" waitingTime="1934.00" timeLoss="4711.94" speed="3.28" speedRelative="0.24" departed="0" arrived="0" entered="481" left="481" laneChangedFrom="0" laneChangedTo="0"/>
        <edge id="670062912#1" sampledSeconds="18137.35" traveltime="37.32" overlapTraveltime="37.71" density="3.51" laneDensity="1.17" occupancy="0.19" waitingTime="595.00" timeLoss="2978.59" speed="4.59" speedRelative="0.33" departed="0" arrived="0" entered="481" left="481" laneChangedFrom="0" laneChangedTo="0"/>
        <edge id="81639675#1" sampledSeconds="7418.03" traveltime="14.99" overlapTraveltime="15.42" density="10.90" laneDensity="3.63" occupancy="0.57" waitingTime="3770.00" timeLoss="5303.06" speed="1.57" speedRelative="0.11" departed="0" arrived="0" entered="481" left="481" laneChangedFrom="0" laneChangedTo="0"/>
        <edge id="976351540#1" sampledSeconds="11866.83" traveltime="24.23" overlapTraveltime="24.67" density="6.23" laneDensity="2.08" occupancy="0.33" waitingTime="2262.00" timeLoss="6248.50" speed="2.62" speedRelative="0.19" departed="0" arrived="0" entered="481" left="481" laneChangedFrom="0" laneChangedTo="0"/>
    </interval>
</meandata>
