<?xml version="1.0" encoding="UTF-8"?>

<!-- generated on 2023-04-26 16:19:46 by Eclipse SUMO sumo Version 1.17.0
<configuration xmlns:xsi="http://www.w3.org/2001/XMLSchema-instance" xsi:noNamespaceSchemaLocation="http://sumo.dlr.de/xsd/sumoConfiguration.xsd">

    <input>
        <net-file value="C:\erdm_ja\sip-svn-trunk\papers\DLR\SUMO_Conference2023\tutorial\05_runMany.final\osm.net.xml.gz"/>
        <route-files value="C:\erdm_ja\sip-svn-trunk\papers\DLR\SUMO_Conference2023\tutorial\05_runMany.final\bikes.rou.xml"/>
    </input>

    <output>
        <output-prefix value="test.sumocfg_0\1."/>
        <tripinfo-output value="C:\erdm_ja\sip-svn-trunk\papers\DLR\SUMO_Conference2023\tutorial\05_runMany.final\tripinfos.xml"/>
        <personinfo-output value="C:\erdm_ja\sip-svn-trunk\papers\DLR\SUMO_Conference2023\tutorial\05_runMany.final\personinfos.xml"/>
        <edgedata-output value="C:\erdm_ja\sip-svn-trunk\papers\DLR\SUMO_Conference2023\tutorial\05_runMany.final\edgedata.xml"/>
        <statistic-output value="C:\erdm_ja\sip-svn-trunk\papers\DLR\SUMO_Conference2023\tutorial\05_runMany.final\stats.xml"/>
    </output>

    <processing>
        <lateral-resolution value="0.8"/>
        <tls.actuated.jam-threshold value="30"/>
    </processing>

    <report>
        <no-step-log value="true"/>
    </report>

    <random_number>
        <seed value="1"/>
    </random_number>

</configuration>
-->

<tripinfos xmlns:xsi="http://www.w3.org/2001/XMLSchema-instance" xsi:noNamespaceSchemaLocation="http://sumo.dlr.de/xsd/tripinfo_file.xsd">
    <tripinfo id="pf_0.1_b0" depart="4.00" departLane="152839448#0_0" departPos="1.70" departPosLat="0.00" departSpeed="0.00" departDelay="2.00" arrival="210.00" arrivalLane="128643746#1_0" arrivalPos="15.76" arrivalPosLat="-1.27" arrivalSpeed="0.32" duration="206.00" routeLength="1138.02" waitingTime="7.00" waitingCount="2" stopTime="0.00" timeLoss="35.03" rerouteNo="1" devices="tripinfo_pf_0.1_b0 person_pf_0.1_b0" vType="DEFAULT_BIKETYPE" speedFactor="1.21" vaporized=""/>
    <tripinfo id="pf_0.2_b0" depart="7.00" departLane="152839448#0_0" departPos="1.70" departPosLat="0.00" departSpeed="0.00" departDelay="0.00" arrival="215.00" arrivalLane="128643746#1_0" arrivalPos="15.76" arrivalPosLat="-1.27" arrivalSpeed="0.14" duration="208.00" routeLength="1138.02" waitingTime="4.00" waitingCount="1" stopTime="0.00" timeLoss="33.63" rerouteNo="1" devices="tripinfo_pf_0.2_b0 person_pf_0.2_b0" vType="DEFAULT_BIKETYPE" speedFactor="1.19" vaporized=""/>
    <tripinfo id="pf_0.7_b0" depart="21.00" departLane="152839448#0_0" departPos="1.70" departPosLat="0.00" departSpeed="0.00" departDelay="8.00" arrival="240.00" arrivalLane="128643746#1_0" arrivalPos="15.76" arrivalPosLat="-1.27" arrivalSpeed="0.09" duration="219.00" routeLength="1138.02" waitingTime="12.00" waitingCount="3" stopTime="0.00" timeLoss="40.74" rerouteNo="1" devices="tripinfo_pf_0.7_b0 person_pf_0.7_b0" vType="DEFAULT_BIKETYPE" speedFactor="1.17" vaporized=""/>
    <tripinfo id="pf_0.12_b0" depart="33.00" departLane="152839448#0_0" departPos="1.70" departPosLat="0.00" departSpeed="0.00" departDelay="10.00" arrival="242.00" arrivalLane="128643746#1_0" arrivalPos="15.76" arrivalPosLat="1.27" arrivalSpeed="0.11" duration="209.00" routeLength="1138.02" waitingTime="7.00" waitingCount="3" stopTime="0.00" timeLoss="33.07" rerouteNo="1" devices="tripinfo_pf_0.12_b0 person_pf_0.12_b0" vType="DEFAULT_BIKETYPE" speedFactor="1.18" vaporized=""/>
    <tripinfo id="pf_0.8_b0" depart="24.00" departLane="152839448#0_0" departPos="1.70" departPosLat="0.00" departSpeed="0.00" departDelay="3.00" arrival="243.00" arrivalLane="128643746#1_0" arrivalPos="15.76" arrivalPosLat="-1.27" arrivalSpeed="0.09" duration="219.00" routeLength="1138.02" waitingTime="9.00" waitingCount="3" stopTime="0.00" timeLoss="39.84" rerouteNo="1" devices="tripinfo_pf_0.8_b0 person_pf_0.8_b0" vType="DEFAULT_BIKETYPE" speedFactor="1.16" vaporized=""/>
    <tripinfo id="pf_0.6_b0" depart="18.00" departLane="152839448#0_0" departPos="1.70" departPosLat="0.00" departSpeed="0.00" departDelay="6.00" arrival="250.00" arrivalLane="128643746#1_0" arrivalPos="15.76" arrivalPosLat="-1.27" arrivalSpeed="0.06" duration="232.00" routeLength="1138.02" waitingTime="7.00" waitingCount="2" stopTime="0.00" timeLoss="40.09" rerouteNo="1" devices="tripinfo_pf_0.6_b0 person_pf_0.6_b0" vType="DEFAULT_BIKETYPE" speedFactor="1.08" vaporized=""/>
    <tripinfo id="pf_0.3_b0" depart="10.00" departLane="152839448#0_0" departPos="1.70" departPosLat="0.00" departSpeed="0.00" departDelay="1.00" arrival="256.00" arrivalLane="128643746#1_0" arrivalPos="15.76" arrivalPosLat="-1.27" arrivalSpeed="0.22" duration="246.00" routeLength="1138.02" waitingTime="7.00" waitingCount="1" stopTime="0.00" timeLoss="37.00" rerouteNo="1" devices="tripinfo_pf_0.3_b0 person_pf_0.3_b0" vType="DEFAULT_BIKETYPE" speedFactor="0.99" vaporized=""/>
    <tripinfo id="pf_0.5_b0" depart="16.00" departLane="152839448#0_0" departPos="1.70" departPosLat="0.00" departSpeed="0.00" departDelay="5.00" arrival="258.00" arrivalLane="128643746#1_0" arrivalPos="15.76" arrivalPosLat="-1.27" arrivalSpeed="0.12" duration="242.00" routeLength="1138.02" waitingTime="7.00" waitingCount="1" stopTime="0.00" timeLoss="37.20" rerouteNo="1" devices="tripinfo_pf_0.5_b0 person_pf_0.5_b0" vType="DEFAULT_BIKETYPE" speedFactor="1.01" vaporized=""/>
    <tripinfo id="pf_0.9_b0" depart="26.00" departLane="152839448#0_0" departPos="1.70" departPosLat="0.00" departSpeed="0.00" departDelay="5.00" arrival="258.00" arrivalLane="128643746#1_0" arrivalPos="15.76" arrivalPosLat="0.13" arrivalSpeed="0.16" duration="232.00" routeLength="1138.02" waitingTime="9.00" waitingCount="1" stopTime="0.00" timeLoss="34.25" rerouteNo="1" devices="tripinfo_pf_0.9_b0 person_pf_0.9_b0" vType="DEFAULT_BIKETYPE" speedFactor="1.05" vaporized=""/>
    <tripinfo id="pf_0.0_b0" depart="2.00" departLane="152839448#0_0" departPos="1.70" departPosLat="0.00" departSpeed="0.00" departDelay="0.00" arrival="282.00" arrivalLane="128643746#1_0" arrivalPos="15.76" arrivalPosLat="-1.27" arrivalSpeed="0.13" duration="280.00" routeLength="1138.02" waitingTime="10.00" waitingCount="3" stopTime="0.00" timeLoss="44.03" rerouteNo="1" devices="tripinfo_pf_0.0_b0 person_pf_0.0_b0" vType="DEFAULT_BIKETYPE" speedFactor="0.88" vaporized=""/>
    <tripinfo id="pf_0.4_b0" depart="13.00" departLane="152839448#0_0" departPos="1.70" departPosLat="0.00" departSpeed="0.00" departDelay="2.00" arrival="301.00" arrivalLane="128643746#1_0" arrivalPos="15.76" arrivalPosLat="-1.27" arrivalSpeed="0.12" duration="288.00" routeLength="1138.02" waitingTime="22.00" waitingCount="2" stopTime="0.00" timeLoss="59.69" rerouteNo="1" devices="tripinfo_pf_0.4_b0 person_pf_0.4_b0" vType="DEFAULT_BIKETYPE" speedFactor="0.91" vaporized=""/>
    <tripinfo id="pf_0.21_b0" depart="56.00" departLane="152839448#0_0" departPos="1.70" departPosLat="0.00" departSpeed="0.00" departDelay="11.00" arrival="316.00" arrivalLane="128643746#1_0" arrivalPos="15.76" arrivalPosLat="-1.27" arrivalSpeed="0.07" duration="260.00" routeLength="1138.02" waitingTime="41.00" waitingCount="5" stopTime="0.00" timeLoss="105.51" rerouteNo="1" devices="tripinfo_pf_0.21_b0 person_pf_0.21_b0" vType="DEFAULT_BIKETYPE" speedFactor="1.34" vaporized=""/>
    <tripinfo id="pf_0.19_b0" depart="51.00" departLane="152839448#0_0" departPos="1.70" departPosLat="0.00" departSpeed="0.00" departDelay="9.00" arrival="318.00" arrivalLane="128643746#1_0" arrivalPos="15.76" arrivalPosLat="0.13" arrivalSpeed="0.41" duration="267.00" routeLength="1138.02" waitingTime="35.00" waitingCount="2" stopTime="0.00" timeLoss="73.12" rerouteNo="1" devices="tripinfo_pf_0.19_b0 person_pf_0.19_b0" vType="DEFAULT_BIKETYPE" speedFactor="1.07" vaporized=""/>
    <tripinfo id="pf_0.15_b0" depart="41.00" departLane="152839448#0_0" departPos="1.70" departPosLat="0.00" departSpeed="0.00" departDelay="8.00" arrival="319.00" arrivalLane="128643746#1_0" arrivalPos="15.76" arrivalPosLat="-1.27" arrivalSpeed="0.18" duration="278.00" routeLength="1138.02" waitingTime="37.00" waitingCount="2" stopTime="0.00" timeLoss="84.38" rerouteNo="1" devices="tripinfo_pf_0.15_b0 person_pf_0.15_b0" vType="DEFAULT_BIKETYPE" speedFactor="1.07" vaporized=""/>
    <tripinfo id="pf_0.28_b0" depart="73.00" departLane="152839448#0_0" departPos="1.70" departPosLat="0.00" departSpeed="0.00" departDelay="15.00" arrival="321.00" arrivalLane="128643746#1_0" arrivalPos="15.76" arrivalPosLat="1.13" arrivalSpeed="0.15" duration="248.00" routeLength="1138.02" waitingTime="11.00" waitingCount="2" stopTime="0.00" timeLoss="63.43" rerouteNo="1" devices="tripinfo_pf_0.28_b0 person_pf_0.28_b0" vType="DEFAULT_BIKETYPE" speedFactor="1.13" vaporized=""/>
    <tripinfo id="pf_0.38_b0" depart="99.00" departLane="152839448#0_0" departPos="1.70" departPosLat="0.00" departSpeed="0.00" departDelay="19.00" arrival="322.00" arrivalLane="128643746#1_0" arrivalPos="15.76" arrivalPosLat="-1.27" arrivalSpeed="2.16" duration="223.00" routeLength="1138.02" waitingTime="6.00" waitingCount="1" stopTime="0.00" timeLoss="36.26" rerouteNo="1" devices="tripinfo_pf_0.38_b0 person_pf_0.38_b0" vType="DEFAULT_BIKETYPE" speedFactor="1.11" vaporized=""/>
    <tripinfo id="pf_0.11_b0" depart="31.00" departLane="152839448#0_0" departPos="1.70" departPosLat="0.00" departSpeed="0.00" departDelay="9.00" arrival="330.00" arrivalLane="128643746#1_0" arrivalPos="15.76" arrivalPosLat="-1.27" arrivalSpeed="0.16" duration="299.00" routeLength="1138.02" waitingTime="45.00" waitingCount="3" stopTime="0.00" timeLoss="81.08" rerouteNo="1" devices="tripinfo_pf_0.11_b0 person_pf_0.11_b0" vType="DEFAULT_BIKETYPE" speedFactor="0.95" vaporized=""/>
    <tripinfo id="pf_0.41_b0" depart="107.00" departLane="152839448#0_0" departPos="1.70" departPosLat="0.00" departSpeed="0.00" departDelay="25.00" arrival="330.00" arrivalLane="128643746#1_0" arrivalPos="15.76" arrivalPosLat="0.13" arrivalSpeed="0.11" duration="223.00" routeLength="1138.02" waitingTime="0.00" waitingCount="0" stopTime="0.00" timeLoss="39.83" rerouteNo="1" devices="tripinfo_pf_0.41_b0 person_pf_0.41_b0" vType="DEFAULT_BIKETYPE" speedFactor="1.14" vaporized=""/>
    <tripinfo id="pf_0.14_b0" depart="38.00" departLane="152839448#0_0" departPos="1.70" departPosLat="0.00" departSpeed="0.00" departDelay="10.00" arrival="333.00" arrivalLane="128643746#1_0" arrivalPos="15.76" arrivalPosLat="-1.27" arrivalSpeed="0.27" duration="295.00" routeLength="1138.02" waitingTime="38.00" waitingCount="2" stopTime="0.00" timeLoss="76.96" rerouteNo="1" devices="tripinfo_pf_0.14_b0 person_pf_0.14_b0" vType="DEFAULT_BIKETYPE" speedFactor="0.95" vaporized=""/>
    <tripinfo id="pf_0.23_b0" depart="62.00" departLane="152839448#0_0" departPos="1.70" departPosLat="0.00" departSpeed="0.00" departDelay="15.00" arrival="333.00" arrivalLane="128643746#1_0" arrivalPos="15.76" arrivalPosLat="1.27" arrivalSpeed="0.71" duration="271.00" routeLength="1138.02" waitingTime="15.00" waitingCount="4" stopTime="0.00" timeLoss="61.76" rerouteNo="1" devices="tripinfo_pf_0.23_b0 person_pf_0.23_b0" vType="DEFAULT_BIKETYPE" speedFactor="0.99" vaporized=""/>
    <tripinfo id="pf_0.18_b0" depart="48.00" departLane="152839448#0_0" departPos="1.70" departPosLat="0.00" departSpeed="0.00" departDelay="8.00" arrival="335.00" arrivalLane="128643746#1_0" arrivalPos="15.76" arrivalPosLat="0.13" arrivalSpeed="0.18" duration="287.00" routeLength="1138.02" waitingTime="35.00" waitingCount="4" stopTime="0.00" timeLoss="75.30" rerouteNo="1" devices="tripinfo_pf_0.18_b0 person_pf_0.18_b0" vType="DEFAULT_BIKETYPE" speedFactor="0.98" vaporized=""/>
    <tripinfo id="pf_0.16_b0" depart="43.00" departLane="152839448#0_0" departPos="1.70" departPosLat="0.00" departSpeed="0.00" departDelay="5.00" arrival="337.00" arrivalLane="128643746#1_0" arrivalPos="15.76" arrivalPosLat="-1.27" arrivalSpeed="0.12" duration="294.00" routeLength="1138.02" waitingTime="36.00" waitingCount="2" stopTime="0.00" timeLoss="91.09" rerouteNo="1" devices="tripinfo_pf_0.16_b0 person_pf_0.16_b0" vType="DEFAULT_BIKETYPE" speedFactor="1.02" vaporized=""/>
    <tripinfo id="pf_0.29_b0" depart="76.00" departLane="152839448#0_0" departPos="1.70" departPosLat="0.00" departSpeed="0.00" departDelay="13.00" arrival="338.00" arrivalLane="128643746#1_0" arrivalPos="15.76" arrivalPosLat="1.27" arrivalSpeed="0.13" duration="262.00" routeLength="1138.02" waitingTime="11.00" waitingCount="2" stopTime="0.00" timeLoss="56.12" rerouteNo="1" devices="tripinfo_pf_0.29_b0 person_pf_0.29_b0" vType="DEFAULT_BIKETYPE" speedFactor="1.01" vaporized=""/>
    <tripinfo id="pf_0.10_b0" depart="29.00" departLane="152839448#0_0" departPos="1.70" departPosLat="0.00" departSpeed="0.00" departDelay="7.00" arrival="339.00" arrivalLane="128643746#1_0" arrivalPos="15.76" arrivalPosLat="0.13" arrivalSpeed="2.56" duration="310.00" routeLength="1138.02" waitingTime="41.00" waitingCount="3" stopTime="0.00" timeLoss="85.54" rerouteNo="1" devices="tripinfo_pf_0.10_b0 person_pf_0.10_b0" vType="DEFAULT_BIKETYPE" speedFactor="0.93" vaporized=""/>
    <tripinfo id="pf_0.26_b0" depart="69.00" departLane="152839448#0_0" departPos="1.70" departPosLat="0.00" departSpeed="0.00" departDelay="16.00" arrival="339.00" arrivalLane="128643746#1_0" arrivalPos="15.76" arrivalPosLat="-1.27" arrivalSpeed="1.20" duration="270.00" routeLength="1138.02" waitingTime="14.00" waitingCount="4" stopTime="0.00" timeLoss="68.65" rerouteNo="1" devices="tripinfo_pf_0.26_b0 person_pf_0.26_b0" vType="DEFAULT_BIKETYPE" speedFactor="1.03" vaporized=""/>
    <tripinfo id="pf_0.34_b0" depart="89.00" departLane="152839448#0_0" departPos="1.70" departPosLat="0.00" departSpeed="0.00" departDelay="13.00" arrival="342.00" arrivalLane="128643746#1_0" arrivalPos="15.76" arrivalPosLat="-1.27" arrivalSpeed="1.57" duration="253.00" routeLength="1138.02" waitingTime="8.00" waitingCount="2" stopTime="0.00" timeLoss="47.15" rerouteNo="1" devices="tripinfo_pf_0.34_b0 person_pf_0.34_b0" vType="DEFAULT_BIKETYPE" speedFactor="1.01" vaporized=""/>
    <tripinfo id="pf_0.39_b0" depart="102.00" departLane="152839448#0_0" departPos="1.70" departPosLat="0.00" departSpeed="0.00" departDelay="22.00" arrival="343.00" arrivalLane="128643746#1_0" arrivalPos="15.76" arrivalPosLat="0.27" arrivalSpeed="0.07" duration="241.00" routeLength="1138.02" waitingTime="7.00" waitingCount="3" stopTime="0.00" timeLoss="49.92" rerouteNo="1" devices="tripinfo_pf_0.39_b0 person_pf_0.39_b0" vType="DEFAULT_BIKETYPE" speedFactor="1.09" vaporized=""/>
    <tripinfo id="pf_0.25_b0" depart="66.00" departLane="152839448#0_0" departPos="1.70" departPosLat="0.00" departSpeed="0.00" departDelay="13.00" arrival="346.00" arrivalLane="128643746#1_0" arrivalPos="15.76" arrivalPosLat="0.13" arrivalSpeed="1.85" duration="280.00" routeLength="1138.02" waitingTime="7.00" waitingCount="3" stopTime="0.00" timeLoss="56.07" rerouteNo="1" devices="tripinfo_pf_0.25_b0 person_pf_0.25_b0" vType="DEFAULT_BIKETYPE" speedFactor="0.93" vaporized=""/>
    <tripinfo id="pf_0.17_b0" depart="46.00" departLane="152839448#0_0" departPos="1.70" departPosLat="0.00" departSpeed="0.00" departDelay="7.00" arrival="347.00" arrivalLane="128643746#1_0" arrivalPos="15.76" arrivalPosLat="1.13" arrivalSpeed="2.29" duration="301.00" routeLength="1138.02" waitingTime="33.00" waitingCount="1" stopTime="0.00" timeLoss="88.37" rerouteNo="1" devices="tripinfo_pf_0.17_b0 person_pf_0.17_b0" vType="DEFAULT_BIKETYPE" speedFactor="0.98" vaporized=""/>
    <tripinfo id="pf_0.13_b0" depart="36.00" departLane="152839448#0_0" departPos="1.70" departPosLat="0.00" departSpeed="0.00" departDelay="9.00" arrival="348.00" arrivalLane="128643746#1_0" arrivalPos="15.76" arrivalPosLat="-1.27" arrivalSpeed="0.12" duration="312.00" routeLength="1138.02" waitingTime="34.00" waitingCount="1" stopTime="0.00" timeLoss="71.80" rerouteNo="1" devices="tripinfo_pf_0.13_b0 person_pf_0.13_b0" vType="DEFAULT_BIKETYPE" speedFactor="0.86" vaporized=""/>
    <tripinfo id="pf_0.20_b0" depart="54.00" departLane="152839448#0_0" departPos="1.70" departPosLat="0.00" departSpeed="0.00" departDelay="11.00" arrival="348.00" arrivalLane="128643746#1_0" arrivalPos="15.76" arrivalPosLat="0.13" arrivalSpeed="2.21" duration="294.00" routeLength="1138.02" waitingTime="26.00" waitingCount="2" stopTime="0.00" timeLoss="68.65" rerouteNo="1" devices="tripinfo_pf_0.20_b0 person_pf_0.20_b0" vType="DEFAULT_BIKETYPE" speedFactor="0.92" vaporized=""/>
    <tripinfo id="pf_0.22_b0" depart="59.00" departLane="152839448#0_0" departPos="1.70" departPosLat="0.00" departSpeed="0.00" departDelay="14.00" arrival="350.00" arrivalLane="128643746#1_0" arrivalPos="15.76" arrivalPosLat="-1.27" arrivalSpeed="0.41" duration="291.00" routeLength="1138.02" waitingTime="20.00" waitingCount="4" stopTime="0.00" timeLoss="79.26" rerouteNo="1" devices="tripinfo_pf_0.22_b0 person_pf_0.22_b0" vType="DEFAULT_BIKETYPE" speedFactor="0.98" vaporized=""/>
    <tripinfo id="pf_0.24_b0" depart="64.00" departLane="152839448#0_0" departPos="1.70" departPosLat="0.00" departSpeed="0.00" departDelay="16.00" arrival="352.00" arrivalLane="128643746#1_0" arrivalPos="15.76" arrivalPosLat="-1.27" arrivalSpeed="0.36" duration="288.00" routeLength="1138.02" waitingTime="13.00" waitingCount="3" stopTime="0.00" timeLoss="72.70" rerouteNo="1" devices="tripinfo_pf_0.24_b0 person_pf_0.24_b0" vType="DEFAULT_BIKETYPE" speedFactor="0.97" vaporized=""/>
    <tripinfo id="pf_0.31_b0" depart="81.00" departLane="152839448#0_0" departPos="1.70" departPosLat="0.00" departSpeed="0.00" departDelay="13.00" arrival="352.00" arrivalLane="128643746#1_0" arrivalPos="15.76" arrivalPosLat="1.27" arrivalSpeed="2.45" duration="271.00" routeLength="1138.02" waitingTime="7.00" waitingCount="1" stopTime="0.00" timeLoss="48.68" rerouteNo="1" devices="tripinfo_pf_0.31_b0 person_pf_0.31_b0" vType="DEFAULT_BIKETYPE" speedFactor="0.93" vaporized=""/>
    <tripinfo id="pf_0.35_b0" depart="92.00" departLane="152839448#0_0" departPos="1.70" departPosLat="0.00" departSpeed="0.00" departDelay="15.00" arrival="352.00" arrivalLane="128643746#1_0" arrivalPos="15.76" arrivalPosLat="0.13" arrivalSpeed="0.08" duration="260.00" routeLength="1138.02" waitingTime="10.00" waitingCount="2" stopTime="0.00" timeLoss="44.03" rerouteNo="1" devices="tripinfo_pf_0.35_b0 person_pf_0.35_b0" vType="DEFAULT_BIKETYPE" speedFactor="0.96" vaporized=""/>
    <tripinfo id="pf_0.33_b0" depart="86.00" departLane="152839448#0_0" departPos="1.70" departPosLat="0.00" departSpeed="0.00" departDelay="11.00" arrival="354.00" arrivalLane="128643746#1_0" arrivalPos="15.76" arrivalPosLat="0.00" arrivalSpeed="0.14" duration="268.00" routeLength="1138.02" waitingTime="14.00" waitingCount="3" stopTime="0.00" timeLoss="77.15" rerouteNo="1" devices="tripinfo_pf_0.33_b0 person_pf_0.33_b0" vType="DEFAULT_BIKETYPE" speedFactor="1.09" vaporized=""/>
    <tripinfo id="pf_0.40_b0" depart="104.00" departLane="152839448#0_0" departPos="1.70" departPosLat="0.00" departSpeed="0.00" departDelay="24.00" arrival="354.00" arrivalLane="128643746#1_0" arrivalPos="15.76" arrivalPosLat="-1.27" arrivalSpeed="1.32" duration="250.00" routeLength="1138.02" waitingTime="4.00" waitingCount="2" stopTime="0.00" timeLoss="38.06" rerouteNo="1" devices="tripinfo_pf_0.40_b0 person_pf_0.40_b0" vType="DEFAULT_BIKETYPE" speedFactor="0.98" vaporized=""/>
    <tripinfo id="pf_0.36_b0" depart="94.00" departLane="152839448#0_0" departPos="1.70" departPosLat="0.00" departSpeed="0.00" departDelay="16.00" arrival="358.00" arrivalLane="128643746#1_0" arrivalPos="15.76" arrivalPosLat="0.13" arrivalSpeed="0.10" duration="264.00" routeLength="1138.02" waitingTime="12.00" waitingCount="4" stopTime="0.00" timeLoss="60.97" rerouteNo="1" devices="tripinfo_pf_0.36_b0 person_pf_0.36_b0" vType="DEFAULT_BIKETYPE" speedFactor="1.02" vaporized=""/>
    <tripinfo id="pf_0.44_b0" depart="114.00" departLane="152839448#0_0" departPos="1.70" departPosLat="0.00" departSpeed="0.00" departDelay="27.00" arrival="358.00" arrivalLane="128643746#1_0" arrivalPos="15.76" arrivalPosLat="-1.27" arrivalSpeed="0.10" duration="244.00" routeLength="1138.02" waitingTime="4.00" waitingCount="3" stopTime="0.00" timeLoss="39.30" rerouteNo="1" devices="tripinfo_pf_0.44_b0 person_pf_0.44_b0" vType="DEFAULT_BIKETYPE" speedFactor="1.02" vaporized=""/>
    <tripinfo id="pf_0.27_b0" depart="71.00" departLane="152839448#0_0" departPos="1.70" departPosLat="0.00" departSpeed="0.00" departDelay="18.00" arrival="361.00" arrivalLane="128643746#1_0" arrivalPos="15.76" arrivalPosLat="-1.27" arrivalSpeed="1.87" duration="290.00" routeLength="1138.02" waitingTime="15.00" waitingCount="5" stopTime="0.00" timeLoss="65.01" rerouteNo="1" devices="tripinfo_pf_0.27_b0 person_pf_0.27_b0" vType="DEFAULT_BIKETYPE" speedFactor="0.92" vaporized=""/>
    <tripinfo id="pf_0.37_b0" depart="97.00" departLane="152839448#0_0" departPos="1.70" departPosLat="0.00" departSpeed="0.00" departDelay="18.00" arrival="365.00" arrivalLane="128643746#1_0" arrivalPos="15.76" arrivalPosLat="1.13" arrivalSpeed="0.10" duration="268.00" routeLength="1138.02" waitingTime="7.00" waitingCount="3" stopTime="0.00" timeLoss="43.93" rerouteNo="1" devices="tripinfo_pf_0.37_b0 person_pf_0.37_b0" vType="DEFAULT_BIKETYPE" speedFactor="0.93" vaporized=""/>
    <tripinfo id="pf_0.42_b0" depart="109.00" departLane="152839448#0_0" departPos="1.70" departPosLat="0.00" departSpeed="0.00" departDelay="25.00" arrival="366.00" arrivalLane="128643746#1_0" arrivalPos="15.76" arrivalPosLat="0.13" arrivalSpeed="0.42" duration="257.00" routeLength="1138.02" waitingTime="18.00" waitingCount="1" stopTime="0.00" timeLoss="62.37" rerouteNo="1" devices="tripinfo_pf_0.42_b0 person_pf_0.42_b0" vType="DEFAULT_BIKETYPE" speedFactor="1.07" vaporized=""/>
    <tripinfo id="pf_0.30_b0" depart="79.00" departLane="152839448#0_0" departPos="1.70" departPosLat="0.00" departSpeed="0.00" departDelay="13.00" arrival="367.00" arrivalLane="128643746#1_0" arrivalPos="15.76" arrivalPosLat="1.27" arrivalSpeed="0.56" duration="288.00" routeLength="1138.02" waitingTime="30.00" waitingCount="3" stopTime="0.00" timeLoss="94.38" rerouteNo="1" devices="tripinfo_pf_0.30_b0 person_pf_0.30_b0" vType="DEFAULT_BIKETYPE" speedFactor="1.07" vaporized=""/>
    <tripinfo id="pf_0.32_b0" depart="84.00" departLane="152839448#0_0" departPos="1.70" departPosLat="0.00" departSpeed="0.00" departDelay="10.00" arrival="367.00" arrivalLane="128643746#1_0" arrivalPos="15.76" arrivalPosLat="-1.27" arrivalSpeed="0.09" duration="283.00" routeLength="1138.02" waitingTime="8.00" waitingCount="3" stopTime="0.00" timeLoss="36.91" rerouteNo="1" devices="tripinfo_pf_0.32_b0 person_pf_0.32_b0" vType="DEFAULT_BIKETYPE" speedFactor="0.84" vaporized=""/>
    <tripinfo id="pf_0.43_b0" depart="112.00" departLane="152839448#0_0" departPos="1.70" departPosLat="0.00" departSpeed="0.00" departDelay="27.00" arrival="379.00" arrivalLane="128643746#1_0" arrivalPos="15.76" arrivalPosLat="-1.27" arrivalSpeed="0.08" duration="267.00" routeLength="1138.02" waitingTime="18.00" waitingCount="3" stopTime="0.00" timeLoss="43.33" rerouteNo="1" devices="tripinfo_pf_0.43_b0 person_pf_0.43_b0" vType="DEFAULT_BIKETYPE" speedFactor="0.93" vaporized=""/>
    <tripinfo id="pf_0.48_b0" depart="124.00" departLane="152839448#0_0" departPos="1.70" departPosLat="0.00" departSpeed="0.00" departDelay="33.00" arrival="438.00" arrivalLane="128643746#1_0" arrivalPos="15.76" arrivalPosLat="-1.27" arrivalSpeed="0.20" duration="314.00" routeLength="1138.02" waitingTime="55.00" waitingCount="4" stopTime="0.00" timeLoss="109.60" rerouteNo="1" devices="tripinfo_pf_0.48_b0 person_pf_0.48_b0" vType="DEFAULT_BIKETYPE" speedFactor="1.02" vaporized=""/>
    <tripinfo id="pf_0.52_b0" depart="134.00" departLane="152839448#0_0" departPos="1.70" departPosLat="0.00" departSpeed="0.00" departDelay="34.00" arrival="441.00" arrivalLane="128643746#1_0" arrivalPos="15.76" arrivalPosLat="0.00" arrivalSpeed="0.09" duration="307.00" routeLength="1138.02" waitingTime="46.00" waitingCount="4" stopTime="0.00" timeLoss="100.65" rerouteNo="1" devices="tripinfo_pf_0.52_b0 person_pf_0.52_b0" vType="DEFAULT_BIKETYPE" speedFactor="1.01" vaporized=""/>
    <tripinfo id="pf_0.51_b0" depart="132.00" departLane="152839448#0_0" departPos="1.70" departPosLat="0.00" departSpeed="0.00" departDelay="32.00" arrival="442.00" arrivalLane="128643746#1_0" arrivalPos="15.76" arrivalPosLat="1.27" arrivalSpeed="0.08" duration="310.00" routeLength="1138.02" waitingTime="50.00" waitingCount="4" stopTime="0.00" timeLoss="114.74" rerouteNo="1" devices="tripinfo_pf_0.51_b0 person_pf_0.51_b0" vType="DEFAULT_BIKETYPE" speedFactor="1.07" vaporized=""/>
    <tripinfo id="pf_0.66_b0" depart="169.00" departLane="152839448#0_0" departPos="1.70" departPosLat="0.00" departSpeed="0.00" departDelay="46.00" arrival="442.00" arrivalLane="128643746#1_0" arrivalPos="15.76" arrivalPosLat="-1.27" arrivalSpeed="0.06" duration="273.00" routeLength="1138.02" waitingTime="36.00" waitingCount="4" stopTime="0.00" timeLoss="87.17" rerouteNo="1" devices="tripinfo_pf_0.66_b0 person_pf_0.66_b0" vType="DEFAULT_BIKETYPE" speedFactor="1.12" vaporized=""/>
    <tripinfo id="pf_0.64_b0" depart="164.00" departLane="152839448#0_0" departPos="1.70" departPosLat="0.00" departSpeed="0.00" departDelay="42.00" arrival="444.00" arrivalLane="128643746#1_0" arrivalPos="15.76" arrivalPosLat="1.13" arrivalSpeed="0.09" duration="280.00" routeLength="1138.02" waitingTime="38.00" waitingCount="4" stopTime="0.00" timeLoss="85.91" rerouteNo="1" devices="tripinfo_pf_0.64_b0 person_pf_0.64_b0" vType="DEFAULT_BIKETYPE" speedFactor="1.07" vaporized=""/>
    <tripinfo id="pf_0.46_b0" depart="119.00" departLane="152839448#0_0" departPos="1.70" departPosLat="0.00" departSpeed="0.00" departDelay="31.00" arrival="446.00" arrivalLane="128643746#1_0" arrivalPos="15.76" arrivalPosLat="-1.27" arrivalSpeed="0.10" duration="327.00" routeLength="1138.02" waitingTime="65.00" waitingCount="6" stopTime="0.00" timeLoss="102.50" rerouteNo="1" devices="tripinfo_pf_0.46_b0 person_pf_0.46_b0" vType="DEFAULT_BIKETYPE" speedFactor="0.93" vaporized=""/>
    <tripinfo id="pf_0.45_b0" depart="117.00" departLane="152839448#0_0" departPos="1.70" departPosLat="0.00" departSpeed="0.00" departDelay="29.00" arrival="448.00" arrivalLane="128643746#1_0" arrivalPos="15.76" arrivalPosLat="1.27" arrivalSpeed="0.22" duration="331.00" routeLength="1138.02" waitingTime="58.00" waitingCount="4" stopTime="0.00" timeLoss="99.94" rerouteNo="1" devices="tripinfo_pf_0.45_b0 person_pf_0.45_b0" vType="DEFAULT_BIKETYPE" speedFactor="0.90" vaporized=""/>
    <tripinfo id="pf_0.57_b0" depart="147.00" departLane="152839448#0_0" departPos="1.70" departPosLat="0.00" departSpeed="0.00" departDelay="38.00" arrival="448.00" arrivalLane="128643746#1_0" arrivalPos="15.76" arrivalPosLat="-0.27" arrivalSpeed="0.13" duration="301.00" routeLength="1138.02" waitingTime="41.00" waitingCount="3" stopTime="0.00" timeLoss="96.59" rerouteNo="1" devices="tripinfo_pf_0.57_b0 person_pf_0.57_b0" vType="DEFAULT_BIKETYPE" speedFactor="1.02" vaporized=""/>
    <tripinfo id="pf_0.49_b0" depart="127.00" departLane="152839448#0_0" departPos="1.70" departPosLat="0.00" departSpeed="0.00" departDelay="34.00" arrival="449.00" arrivalLane="128643746#1_0" arrivalPos="15.76" arrivalPosLat="-1.27" arrivalSpeed="0.21" duration="322.00" routeLength="1138.02" waitingTime="52.00" waitingCount="5" stopTime="0.00" timeLoss="107.88" rerouteNo="1" devices="tripinfo_pf_0.49_b0 person_pf_0.49_b0" vType="DEFAULT_BIKETYPE" speedFactor="0.97" vaporized=""/>
    <tripinfo id="pf_0.59_b0" depart="151.00" departLane="152839448#0_0" departPos="1.70" departPosLat="0.00" departSpeed="0.00" departDelay="39.00" arrival="451.00" arrivalLane="128643746#1_0" arrivalPos="15.76" arrivalPosLat="-1.27" arrivalSpeed="0.51" duration="300.00" routeLength="1138.02" waitingTime="37.00" waitingCount="3" stopTime="0.00" timeLoss="84.71" rerouteNo="1" devices="tripinfo_pf_0.59_b0 person_pf_0.59_b0" vType="DEFAULT_BIKETYPE" speedFactor="0.96" vaporized=""/>
    <tripinfo id="pf_0.62_b0" depart="159.00" departLane="152839448#0_0" departPos="1.70" departPosLat="0.00" departSpeed="0.00" departDelay="43.00" arrival="453.00" arrivalLane="128643746#1_0" arrivalPos="15.76" arrivalPosLat="1.27" arrivalSpeed="0.11" duration="294.00" routeLength="1138.02" waitingTime="38.00" waitingCount="2" stopTime="0.00" timeLoss="100.56" rerouteNo="1" devices="tripinfo_pf_0.62_b0 person_pf_0.62_b0" vType="DEFAULT_BIKETYPE" speedFactor="1.07" vaporized=""/>
    <tripinfo id="pf_0.47_b0" depart="121.00" departLane="152839448#0_0" departPos="1.70" departPosLat="0.00" departSpeed="0.00" departDelay="32.00" arrival="454.00" arrivalLane="128643746#1_0" arrivalPos="15.76" arrivalPosLat="0.13" arrivalSpeed="1.99" duration="333.00" routeLength="1138.02" waitingTime="58.00" waitingCount="6" stopTime="0.00" timeLoss="98.45" rerouteNo="1" devices="tripinfo_pf_0.47_b0 person_pf_0.47_b0" vType="DEFAULT_BIKETYPE" speedFactor="0.89" vaporized=""/>
    <tripinfo id="pf_0.50_b0" depart="129.00" departLane="152839448#0_0" departPos="1.70" departPosLat="0.00" departSpeed="0.00" departDelay="34.00" arrival="455.00" arrivalLane="128643746#1_0" arrivalPos="15.76" arrivalPosLat="-1.27" arrivalSpeed="0.10" duration="326.00" routeLength="1138.02" waitingTime="50.00" waitingCount="4" stopTime="0.00" timeLoss="95.14" rerouteNo="1" devices="tripinfo_pf_0.50_b0 person_pf_0.50_b0" vType="DEFAULT_BIKETYPE" speedFactor="0.90" vaporized=""/>