<?xml version="1.0" encoding="UTF-8"?>

<!-- generated on 2023-04-26 16:19:46 by Eclipse SUMO sumo Version 1.17.0
<configuration xmlns:xsi="http://www.w3.org/2001/XMLSchema-instance" xsi:noNamespaceSchemaLocation="http://sumo.dlr.de/xsd/sumoConfiguration.xsd">

    <input>
        <net-file value="C:\erdm_ja\sip-svn-trunk\papers\DLR\SUMO_Conference2023\tutorial\05_runMany.final\osm.net.xml.gz"/>
        <route-files value="C:\erdm_ja\sip-svn-trunk\papers\DLR\SUMO_Conference2023\tutorial\05_runMany.final\bikes.rou.xml"/>
    </input>

    <output>
        <output-prefix value="test.sumocfg_0\2."/>
        <tripinfo-output value="C:\erdm_ja\sip-svn-trunk\papers\DLR\SUMO_Conference2023\tutorial\05_runMany.final\tripinfos.xml"/>
        <personinfo-output value="C:\erdm_ja\sip-svn-trunk\papers\DLR\SUMO_Conference2023\tutorial\05_runMany.final\personinfos.xml"/>
        <edgedata-output value="C:\erdm_ja\sip-svn-trunk\papers\DLR\SUMO_Conference2023\tutorial\05_runMany.final\edgedata.xml"/>
        <statistic-output value="C:\erdm_ja\sip-svn-trunk\papers\DLR\SUMO_Conference2023\tutorial\05_runMany.final\stats.xml"/>
    </output>

    <processing>
        <lateral-resolution value="0.8"/>
        <tls.actuated.jam-threshold value="30"/>
    </processing>

    <report>
        <no-step-log value="true"/>
    </report>

    <random_number>
        <seed value="2"/>
    </random_number>

</configuration>
-->

<meandata xmlns:xsi="http://www.w3.org/2001/XMLSchema-instance" xsi:noNamespaceSchemaLocation="http://sumo.dlr.de/xsd/meandata_file.xsd">
    <interval begin="0.00" end="30225.00" id="DEFAULT_EDGEDATA">
        <edge id="-128643746#1" sampledSeconds="6618.24" traveltime="13.22" overlapTraveltime="13.82" density="6.95" laneDensity="6.95" occupancy="1.06" waitingTime="0.00" timeLoss="1041.97" speed="2.40" speedRelative="0.86" departed="0" arrived="0" entered="479" left="479" laneChangedFrom="0" laneChangedTo="0"/>
        <edge id="-142575674#5" sampledSeconds="3495.84" traveltime="6.98" overlapTraveltime="7.30" density="3.32" laneDensity="3.32" occupancy="0.51" waitingTime="0.00" timeLoss="302.40" speed="4.99" speedRelative="0.36" departed="0" arrived="0" entered="479" left="479" laneChangedFrom="0" laneChangedTo="0"/>
        <edge id="-142575688#0" sampledSeconds="4353.24" traveltime="8.76" overlapTraveltime="9.09" density="3.31" laneDensity="3.31" occupancy="0.51" waitingTime="0.00" timeLoss="381.23" speed="4.96" speedRelative="0.36" departed="0" arrived="0" entered="479" left="479" laneChangedFrom="0" laneChangedTo="0"/>
        <edge id="-142575688#1" sampledSeconds="3898.81" traveltime="7.82" overlapTraveltime="8.14" density="3.25" laneDensity="3.25" occupancy="0.50" waitingTime="0.00" timeLoss="268.45" speed="5.07" speedRelative="0.36" departed="0" arrived="0" entered="479" left="479" laneChangedFrom="0" laneChangedTo="0"/>
        <edge id="-142575688#10" sampledSeconds="746.42" traveltime="1.24" overlapTraveltime="1.56" density="3.90" laneDensity="3.90" occupancy="0.50" waitingTime="0.00" timeLoss="48.17" speed="5.09" speedRelative="0.37" departed="0" arrived="0" entered="479" left="479" laneChangedFrom="0" laneChangedTo="0"/>
        <edge id="-142575688#2" sampledSeconds="322.46" traveltime="0.36" overlapTraveltime="0.67" density="5.89" laneDensity="5.89" occupancy="0.50" waitingTime="0.00" timeLoss="22.21" speed="5.07" speedRelative="0.36" departed="0" arrived="0" entered="479" left="479" laneChangedFrom="0" laneChangedTo="0"/>
        <edge id="-142575688#3" sampledSeconds="1513.32" traveltime="2.84" overlapTraveltime="3.16" density="3.48" laneDensity="3.48" occupancy="0.50" waitingTime="0.00" timeLoss="106.25" speed="5.06" speedRelative="0.36" departed="0" arrived="0" entered="479" left="479" laneChangedFrom="0" laneChangedTo="0"/>
        <edge id="-142575688#5" sampledSeconds="198.66" traveltime="0.08" overlapTraveltime="0.41" density="16.03" laneDensity="16.03" occupancy="0.52" waitingTime="0.00" timeLoss="21.68" speed="4.85" speedRelative="0.35" departed="0" arrived="0" entered="479" left="479" laneChangedFrom="0" laneChangedTo="0"/>
        <edge id="-142575688#6" sampledSeconds="10157.44" traveltime="20.84" overlapTraveltime="21.21" density="3.20" laneDensity="3.20" occupancy="0.50" waitingTime="0.00" timeLoss="757.06" speed="5.03" speedRelative="0.36" departed="0" arrived="0" entered="479" left="479" laneChangedFrom="0" laneChangedTo="0"/>
        <edge id="-142575688#7" sampledSeconds="907.86" traveltime="1.58" overlapTraveltime="1.90" density="3.75" laneDensity="3.75" occupancy="0.50" waitingTime="0.00" timeLoss="62.57" speed="5.07" speedRelative="0.36" departed="0" arrived="0" entered="479" left="479" laneChangedFrom="0" laneChangedTo="0"/>
        <edge id="-142575688#8" sampledSeconds="184.06" traveltime="0.07" overlapTraveltime="0.38" density="17.40" laneDensity="17.40" occupancy="0.50" waitingTime="0.00" timeLoss="12.36" speed="5.07" speedRelative="0.37" departed="0" arrived="0" entered="479" left="479" laneChangedFrom="0" laneChangedTo="0"/>
        <edge id="-142575688#9" sampledSeconds="601.03" traveltime="0.94" overlapTraveltime="1.25" density="4.16" laneDensity="4.16" occupancy="0.50" waitingTime="0.00" timeLoss="39.26" speed="5.08" speedRelative="0.37" departed="0" arrived="0" entered="479" left="479" laneChangedFrom="0" laneChangedTo="0"/>
        <edge id="1051578539#3" sampledSeconds="68729.94" traveltime="140.70" overlapTraveltime="143.86" density="11.38" laneDensity="11.38" occupancy="1.80" waitingTime="39105.68" timeLoss="51043.89" speed="1.40" speedRelative="0.25" departed="0" arrived="0" entered="479" left="479" laneChangedFrom="0" laneChangedTo="0"/>
        <edge id="1051578542#1" sampledSeconds="236.32" traveltime="0.06" overlapTraveltime="0.49" density="39.09" laneDensity="39.09" occupancy="0.69" waitingTime="0.00" timeLoss="77.82" speed="3.65" speedRelative="0.66" departed="0" arrived="0" entered="479" left="479" laneChangedFrom="0" laneChangedTo="0"/>
        <edge id="128643746#1" sampledSeconds="8051.80" traveltime="16.16" overlapTraveltime="16.83" density="8.45" laneDensity="8.45" occupancy="1.30" waitingTime="102.00" timeLoss="2243.72" speed="1.97" speedRelative="0.71" departed="479" arrived="479" entered="479" left="479" laneChangedFrom="0" laneChangedTo="0"/>
        <edge id="142575674#4" sampledSeconds="6666.50" traveltime="13.38" overlapTraveltime="13.92" density="6.33" laneDensity="6.33" occupancy="0.98" waitingTime="1874.00" timeLoss="3457.02" speed="2.62" speedRelative="0.19" departed="0" arrived="0" entered="479" left="479" laneChangedFrom="0" laneChangedTo="0"/>
        <edge id="142575688#0" sampledSeconds="4337.33" traveltime="8.73" overlapTraveltime="9.05" density="3.30" laneDensity="3.30" occupancy="0.51" waitingTime="0.00" timeLoss="382.13" speed="4.98" speedRelative="0.36" departed="0" arrived="0" entered="479" left="479" laneChangedFrom="0" laneChangedTo="0"/>
        <edge id="142575688#1" sampledSeconds="5109.46" traveltime="10.16" overlapTraveltime="10.67" density="4.27" laneDensity="4.27" occupancy="0.66" waitingTime="197.00" timeLoss="1495.25" speed="3.87" speedRelative="0.28" departed="0" arrived="0" entered="479" left="479" laneChangedFrom="0" laneChangedTo="0"/>
        <edge id="142575688#10" sampledSeconds="748.80" traveltime="1.25" overlapTraveltime="1.56" density="3.91" laneDensity="3.91" occupancy="0.50" waitingTime="0.00" timeLoss="53.66" speed="5.07" speedRelative="0.37" departed="0" arrived="0" entered="479" left="479" laneChangedFrom="0" laneChangedTo="0"/>
        <edge id="142575688#2" sampledSeconds="406.50" traveltime="0.47" overlapTraveltime="0.85" density="7.43" laneDensity="7.43" occupancy="0.62" waitingTime="0.00" timeLoss="107.58" speed="4.02" speedRelative="0.29" departed="0" arrived="0" entered="479" left="479" laneChangedFrom="0" laneChangedTo="0"/>
        <edge id="142575688#3" sampledSeconds="1583.00" traveltime="2.98" overlapTraveltime="3.30" density="3.65" laneDensity="3.65" occupancy="0.53" waitingTime="0.00" timeLoss="185.71" speed="4.82" speedRelative="0.35" departed="0" arrived="0" entered="479" left="479" laneChangedFrom="0" laneChangedTo="0"/>
        <edge id="142575688#5" sampledSeconds="192.74" traveltime="0.09" overlapTraveltime="0.40" density="14.17" laneDensity="14.17" occupancy="0.50" waitingTime="0.00" timeLoss="13.04" speed="5.09" speedRelative="0.37" departed="0" arrived="0" entered="479" left="479" laneChangedFrom="0" laneChangedTo="0"/>
        <edge id="142575688#6" sampledSeconds="10077.83" traveltime="20.72" overlapTraveltime="21.04" density="3.17" laneDensity="3.17" occupancy="0.50" waitingTime="0.00" timeLoss="714.91" speed="5.08" speedRelative="0.37" departed="0" arrived="0" entered="479" left="479" laneChangedFrom="0" laneChangedTo="0"/>
        <edge id="142575688#7" sampledSeconds="915.86" traveltime="1.60" overlapTraveltime="1.91" density="3.74" laneDensity="3.74" occupancy="0.50" waitingTime="0.00" timeLoss="64.69" speed="5.08" speedRelative="0.37" departed="0" arrived="0" entered="479" left="479" laneChangedFrom="0" laneChangedTo="0"/>
        <edge id="142575688#8" sampledSeconds="185.59" traveltime="0.07" overlapTraveltime="0.39" density="17.54" laneDensity="17.54" occupancy="0.50" waitingTime="0.00" timeLoss="14.66" speed="5.03" speedRelative="0.36" departed="0" arrived="0" entered="479" left="479" laneChangedFrom="0" laneChangedTo="0"/>
        <edge id="142575688#9" sampledSeconds="601.64" traveltime="0.94" overlapTraveltime="1.26" density="4.16" laneDensity="4.16" occupancy="0.50" waitingTime="0.00" timeLoss="42.38" speed="5.08" speedRelative="0.37" departed="0" arrived="0" entered="479" left="479" laneChangedFrom="0" laneChangedTo="0"/>
        <edge id="143308542#5" sampledSeconds="10042.22" traveltime="20.64" overlapTraveltime="20.96" density="3.24" laneDensity="1.62" occupancy="0.26" waitingTime="0.00" timeLoss="871.66" speed="4.97" speedRelative="0.36" departed="0" arrived="0" entered="479" left="479" laneChangedFrom="2" laneChangedTo="2"/>
        <edge id="143308542#7" sampledSeconds="3521.85" traveltime="7.03" overlapTraveltime="7.35" density="3.35" laneDensity="1.68" occupancy="0.26" waitingTime="0.00" timeLoss="318.54" speed="4.95" speedRelative="0.36" departed="0" arrived="0" entered="479" left="479" laneChangedFrom="1" laneChangedTo="1"/>
        <edge id="143308542#8" sampledSeconds="6854.40" traveltime="13.85" overlapTraveltime="14.31" density="4.67" laneDensity="2.34" occupancy="0.36" waitingTime="1160.00" timeLoss="2438.62" speed="3.50" speedRelative="0.25" departed="0" arrived="0" entered="479" left="479" laneChangedFrom="1" laneChangedTo="1"/>
        <edge id="143308552#1" sampledSeconds="8940.07" traveltime="18.22" overlapTraveltime="18.66" density="3.78" laneDensity="1.89" occupancy="0.30" waitingTime="455.00" timeLoss="1916.20" speed="4.27" speedRelative="0.31" departed="0" arrived="0" entered="479" left="479" laneChangedFrom="0" laneChangedTo="0"/>
        <edge id="152839448#0" sampledSeconds="3526.16" traveltime="7.68" overlapTraveltime="8.05" density="6.43" laneDensity="2.14" occupancy="0.33" waitingTime="241.00" timeLoss="1943.91" speed="2.45" speedRelative="0.18" departed="479" arrived="0" entered="0" left="479" laneChangedFrom="0" laneChangedTo="0"/>
        <edge id="318210389#0" sampledSeconds="6968.21" traveltime="14.06" overlapTraveltime="14.55" density="5.70" laneDensity="1.42" occupancy="0.22" waitingTime="1607.00" timeLoss="3280.37" speed="2.89" speedRelative="0.21" departed="0" arrived="0" entered="479" left="479" laneChangedFrom="0" laneChangedTo="0"/>
        <edge id="52036180#5" sampledSeconds="6515.43" traveltime="27.26" overlapTraveltime="28.15" density="4.43" laneDensity="1.48" occupancy="0.23" waitingTime="87.00" timeLoss="4378.49" speed="1.78" speedRelative="0.13" departed="0" arrived="479" entered="479" left="0" laneChangedFrom="0" laneChangedTo="0"/>
        <edge id="541676219" sampledSeconds="6300.49" traveltime="12.84" overlapTraveltime="13.15" density="3.21" laneDensity="1.07" occupancy="0.17" waitingTime="0.00" timeLoss="474.64" speed="5.05" speedRelative="0.36" departed="0" arrived="0" entered="479" left="479" laneChangedFrom="0" laneChangedTo="0"/>
        <edge id="670062907#1" sampledSeconds="5695.12" traveltime="11.49" overlapTraveltime="11.89" density="3.87" laneDensity="1.94" occupancy="0.30" waitingTime="70.00" timeLoss="1291.84" speed="4.22" speedRelative="0.30" departed="0" arrived="0" entered="479" left="479" laneChangedFrom="267" laneChangedTo="267"/>
        <edge id="670062907#2" sampledSeconds="5239.67" traveltime="10.60" overlapTraveltime="10.94" density="3.79" laneDensity="1.89" occupancy="0.29" waitingTime="72.00" timeLoss="1089.02" speed="4.33" speedRelative="0.31" departed="0" arrived="0" entered="479" left="479" laneChangedFrom="172" laneChangedTo="172"/>
        <edge id="670062907#4" sampledSeconds="10166.35" traveltime="20.79" overlapTraveltime="21.22" density="3.85" laneDensity="1.93" occupancy="0.30" waitingTime="1014.00" timeLoss="2376.92" speed="4.19" speedRelative="0.30" departed="0" arrived="0" entered="479" left="479" laneChangedFrom="3" laneChangedTo="3"/>
        <edge id="670062909#1" sampledSeconds="12939.13" traveltime="26.58" overlapTraveltime="27.01" density="5.48" laneDensity="1.83" occupancy="0.29" waitingTime="3510.00" timeLoss="5953.54" speed="2.95" speedRelative="0.21" departed="0" arrived="0" entered="479" left="479" laneChangedFrom="0" laneChangedTo="0"/>
        <edge id="670062912#1" sampledSeconds="17696.33" traveltime="36.58" overlapTraveltime="36.94" density="3.42" laneDensity="1.14" occupancy="0.18" waitingTime="374.00" timeLoss="2529.48" speed="4.68" speedRelative="0.34" departed="0" arrived="0" entered="479" left="479" laneChangedFrom="0" laneChangedTo="0"/>
        <edge id="81639675#1" sampledSeconds="6355.81" traveltime="12.84" overlapTraveltime="13.27" density="9.33" laneDensity="3.11" occupancy="0.48" waitingTime="2857.00" timeLoss="4239.71" speed="1.82" speedRelative="0.13" departed="0" arrived="0" entered="479" left="479" laneChangedFrom="0" laneChangedTo="0"/>
        <edge id="976351540#1" sampledSeconds="11029.71" traveltime="22.56" overlapTraveltime="23.03" density="5.79" laneDensity="1.93" occupancy="0.30" waitingTime="1772.00" timeLoss="5336.30" speed="2.81" speedRelative="0.20" departed="0" arrived="0" entered="479" left="479" laneChangedFrom="0" laneChangedTo="0"/>
    </interval>
</meandata>
