<?xml version="1.0" encoding="UTF-8"?>

<!-- generated on 2023-04-26 16:19:46 by Eclipse SUMO sumo Version 1.17.0
<configuration xmlns:xsi="http://www.w3.org/2001/XMLSchema-instance" xsi:noNamespaceSchemaLocation="http://sumo.dlr.de/xsd/sumoConfiguration.xsd">

    <input>
        <net-file value="C:\erdm_ja\sip-svn-trunk\papers\DLR\SUMO_Conference2023\tutorial\05_runMany.final\osm.net.xml.gz"/>
        <route-files value="C:\erdm_ja\sip-svn-trunk\papers\DLR\SUMO_Conference2023\tutorial\05_runMany.final\bikes.rou.xml"/>
    </input>

    <output>
        <output-prefix value="test.sumocfg_0\2."/>
        <tripinfo-output value="C:\erdm_ja\sip-svn-trunk\papers\DLR\SUMO_Conference2023\tutorial\05_runMany.final\tripinfos.xml"/>
        <personinfo-output value="C:\erdm_ja\sip-svn-trunk\papers\DLR\SUMO_Conference2023\tutorial\05_runMany.final\personinfos.xml"/>
        <edgedata-output value="C:\erdm_ja\sip-svn-trunk\papers\DLR\SUMO_Conference2023\tutorial\05_runMany.final\edgedata.xml"/>
        <statistic-output value="C:\erdm_ja\sip-svn-trunk\papers\DLR\SUMO_Conference2023\tutorial\05_runMany.final\stats.xml"/>
    </output>

    <processing>
        <lateral-resolution value="0.8"/>
        <tls.actuated.jam-threshold value="30"/>
    </processing>

    <report>
        <no-step-log value="true"/>
    </report>

    <random_number>
        <seed value="2"/>
    </random_number>

</configuration>
-->

<tripinfos xmlns:xsi="http://www.w3.org/2001/XMLSchema-instance" xsi:noNamespaceSchemaLocation="http://sumo.dlr.de/xsd/tripinfo_file.xsd">
    <tripinfo id="pf_0.5_b0" depart="14.00" departLane="152839448#0_0" departPos="1.70" departPosLat="0.00" departSpeed="0.00" departDelay="4.00" arrival="205.00" arrivalLane="128643746#1_0" arrivalPos="15.76" arrivalPosLat="-1.27" arrivalSpeed="0.10" duration="191.00" routeLength="1138.02" waitingTime="1.00" waitingCount="1" stopTime="0.00" timeLoss="29.95" rerouteNo="1" devices="tripinfo_pf_0.5_b0 person_pf_0.5_b0" vType="DEFAULT_BIKETYPE" speedFactor="1.29" vaporized=""/>
    <tripinfo id="pf_0.0_b0" depart="2.00" departLane="152839448#0_0" departPos="1.70" departPosLat="0.00" departSpeed="0.00" departDelay="0.00" arrival="218.00" arrivalLane="128643746#1_0" arrivalPos="15.76" arrivalPosLat="-1.27" arrivalSpeed="0.12" duration="216.00" routeLength="1138.02" waitingTime="7.00" waitingCount="2" stopTime="0.00" timeLoss="34.22" rerouteNo="1" devices="tripinfo_pf_0.0_b0 person_pf_0.0_b0" vType="DEFAULT_BIKETYPE" speedFactor="1.14" vaporized=""/>
    <tripinfo id="pf_0.3_b0" depart="9.00" departLane="152839448#0_0" departPos="1.70" departPosLat="0.00" departSpeed="0.00" departDelay="1.00" arrival="234.00" arrivalLane="128643746#1_0" arrivalPos="15.76" arrivalPosLat="-1.27" arrivalSpeed="0.14" duration="225.00" routeLength="1138.02" waitingTime="2.00" waitingCount="1" stopTime="0.00" timeLoss="24.36" rerouteNo="1" devices="tripinfo_pf_0.3_b0 person_pf_0.3_b0" vType="DEFAULT_BIKETYPE" speedFactor="1.04" vaporized=""/>
    <tripinfo id="pf_0.8_b0" depart="22.00" departLane="152839448#0_0" departPos="1.70" departPosLat="0.00" departSpeed="0.00" departDelay="9.00" arrival="257.00" arrivalLane="128643746#1_0" arrivalPos="15.76" arrivalPosLat="-1.27" arrivalSpeed="0.24" duration="235.00" routeLength="1138.02" waitingTime="0.00" waitingCount="0" stopTime="0.00" timeLoss="33.61" rerouteNo="1" devices="tripinfo_pf_0.8_b0 person_pf_0.8_b0" vType="DEFAULT_BIKETYPE" speedFactor="1.03" vaporized=""/>
    <tripinfo id="pf_0.9_b0" depart="24.00" departLane="152839448#0_0" departPos="1.70" departPosLat="0.00" departSpeed="0.00" departDelay="10.00" arrival="260.00" arrivalLane="128643746#1_0" arrivalPos="15.76" arrivalPosLat="-1.27" arrivalSpeed="0.12" duration="236.00" routeLength="1138.02" waitingTime="2.00" waitingCount="1" stopTime="0.00" timeLoss="33.49" rerouteNo="1" devices="tripinfo_pf_0.9_b0 person_pf_0.9_b0" vType="DEFAULT_BIKETYPE" speedFactor="1.03" vaporized=""/>
    <tripinfo id="pf_0.6_b0" depart="17.00" departLane="152839448#0_0" departPos="1.70" departPosLat="0.00" departSpeed="0.00" departDelay="6.00" arrival="263.00" arrivalLane="128643746#1_0" arrivalPos="15.76" arrivalPosLat="-1.27" arrivalSpeed="0.21" duration="246.00" routeLength="1138.02" waitingTime="3.00" waitingCount="1" stopTime="0.00" timeLoss="28.42" rerouteNo="1" devices="tripinfo_pf_0.6_b0 person_pf_0.6_b0" vType="DEFAULT_BIKETYPE" speedFactor="0.95" vaporized=""/>
    <tripinfo id="pf_0.10_b0" depart="27.00" departLane="152839448#0_0" departPos="1.70" departPosLat="0.00" departSpeed="0.00" departDelay="13.00" arrival="266.00" arrivalLane="128643746#1_0" arrivalPos="15.76" arrivalPosLat="-0.27" arrivalSpeed="1.52" duration="239.00" routeLength="1138.02" waitingTime="0.00" waitingCount="0" stopTime="0.00" timeLoss="24.98" rerouteNo="1" devices="tripinfo_pf_0.10_b0 person_pf_0.10_b0" vType="DEFAULT_BIKETYPE" speedFactor="0.97" vaporized=""/>
    <tripinfo id="pf_0.2_b0" depart="7.00" departLane="152839448#0_0" departPos="1.70" departPosLat="0.00" departSpeed="0.00" departDelay="3.00" arrival="269.00" arrivalLane="128643746#1_0" arrivalPos="15.76" arrivalPosLat="-1.27" arrivalSpeed="0.11" duration="262.00" routeLength="1138.02" waitingTime="0.00" waitingCount="0" stopTime="0.00" timeLoss="53.47" rerouteNo="1" devices="tripinfo_pf_0.2_b0 person_pf_0.2_b0" vType="DEFAULT_BIKETYPE" speedFactor="1.00" vaporized=""/>
    <tripinfo id="pf_0.7_b0" depart="19.00" departLane="152839448#0_0" departPos="1.70" departPosLat="0.00" departSpeed="0.00" departDelay="7.00" arrival="270.00" arrivalLane="128643746#1_0" arrivalPos="15.76" arrivalPosLat="1.13" arrivalSpeed="0.15" duration="251.00" routeLength="1138.02" waitingTime="2.00" waitingCount="1" stopTime="0.00" timeLoss="27.40" rerouteNo="1" devices="tripinfo_pf_0.7_b0 person_pf_0.7_b0" vType="DEFAULT_BIKETYPE" speedFactor="0.93" vaporized=""/>
    <tripinfo id="pf_0.11_b0" depart="29.00" departLane="152839448#0_0" departPos="1.70" departPosLat="0.00" departSpeed="0.00" departDelay="13.00" arrival="270.00" arrivalLane="128643746#1_0" arrivalPos="15.76" arrivalPosLat="-0.73" arrivalSpeed="0.12" duration="241.00" routeLength="1138.02" waitingTime="0.00" waitingCount="0" stopTime="0.00" timeLoss="39.86" rerouteNo="1" devices="tripinfo_pf_0.11_b0 person_pf_0.11_b0" vType="DEFAULT_BIKETYPE" speedFactor="1.03" vaporized=""/>
    <tripinfo id="pf_0.21_b0" depart="53.00" departLane="152839448#0_0" departPos="1.70" departPosLat="0.00" departSpeed="0.00" departDelay="17.00" arrival="274.00" arrivalLane="128643746#1_0" arrivalPos="15.76" arrivalPosLat="0.13" arrivalSpeed="0.24" duration="221.00" routeLength="1138.02" waitingTime="1.00" waitingCount="1" stopTime="0.00" timeLoss="26.93" rerouteNo="1" devices="tripinfo_pf_0.21_b0 person_pf_0.21_b0" vType="DEFAULT_BIKETYPE" speedFactor="1.07" vaporized=""/>
    <tripinfo id="pf_0.4_b0" depart="12.00" departLane="152839448#0_0" departPos="1.70" departPosLat="0.00" departSpeed="0.00" departDelay="3.00" arrival="275.00" arrivalLane="128643746#1_0" arrivalPos="15.76" arrivalPosLat="-1.27" arrivalSpeed="0.19" duration="263.00" routeLength="1138.02" waitingTime="8.00" waitingCount="1" stopTime="0.00" timeLoss="43.71" rerouteNo="1" devices="tripinfo_pf_0.4_b0 person_pf_0.4_b0" vType="DEFAULT_BIKETYPE" speedFactor="0.95" vaporized=""/>
    <tripinfo id="pf_0.1_b0" depart="4.00" departLane="152839448#0_0" departPos="1.70" departPosLat="0.00" departSpeed="0.00" departDelay="2.00" arrival="297.00" arrivalLane="128643746#1_0" arrivalPos="15.76" arrivalPosLat="-1.27" arrivalSpeed="0.25" duration="293.00" routeLength="1138.02" waitingTime="2.00" waitingCount="2" stopTime="0.00" timeLoss="33.45" rerouteNo="1" devices="tripinfo_pf_0.1_b0 person_pf_0.1_b0" vType="DEFAULT_BIKETYPE" speedFactor="0.80" vaporized=""/>
    <tripinfo id="pf_0.20_b0" depart="51.00" departLane="152839448#0_0" departPos="1.70" departPosLat="0.00" departSpeed="0.00" departDelay="16.00" arrival="300.00" arrivalLane="128643746#1_0" arrivalPos="15.76" arrivalPosLat="-1.27" arrivalSpeed="0.14" duration="249.00" routeLength="1138.02" waitingTime="9.00" waitingCount="2" stopTime="0.00" timeLoss="43.09" rerouteNo="1" devices="tripinfo_pf_0.20_b0 person_pf_0.20_b0" vType="DEFAULT_BIKETYPE" speedFactor="1.01" vaporized=""/>
    <tripinfo id="pf_0.22_b0" depart="56.00" departLane="152839448#0_0" departPos="1.70" departPosLat="0.00" departSpeed="0.00" departDelay="19.00" arrival="302.00" arrivalLane="128643746#1_0" arrivalPos="15.76" arrivalPosLat="-0.27" arrivalSpeed="0.15" duration="246.00" routeLength="1138.02" waitingTime="13.00" waitingCount="2" stopTime="0.00" timeLoss="47.83" rerouteNo="1" devices="tripinfo_pf_0.22_b0 person_pf_0.22_b0" vType="DEFAULT_BIKETYPE" speedFactor="1.05" vaporized=""/>
    <tripinfo id="pf_0.19_b0" depart="48.00" departLane="152839448#0_0" departPos="1.70" departPosLat="0.00" departSpeed="0.00" departDelay="14.00" arrival="305.00" arrivalLane="128643746#1_0" arrivalPos="15.76" arrivalPosLat="-1.27" arrivalSpeed="0.21" duration="257.00" routeLength="1138.02" waitingTime="10.00" waitingCount="1" stopTime="0.00" timeLoss="38.42" rerouteNo="1" devices="tripinfo_pf_0.19_b0 person_pf_0.19_b0" vType="DEFAULT_BIKETYPE" speedFactor="0.95" vaporized=""/>
    <tripinfo id="pf_0.14_b0" depart="36.00" departLane="152839448#0_0" departPos="1.70" departPosLat="0.00" departSpeed="0.00" departDelay="11.00" arrival="308.00" arrivalLane="128643746#1_0" arrivalPos="15.76" arrivalPosLat="-1.27" arrivalSpeed="0.20" duration="272.00" routeLength="1138.02" waitingTime="19.00" waitingCount="4" stopTime="0.00" timeLoss="51.22" rerouteNo="1" devices="tripinfo_pf_0.14_b0 person_pf_0.14_b0" vType="DEFAULT_BIKETYPE" speedFactor="0.94" vaporized=""/>
    <tripinfo id="pf_0.13_b0" depart="34.00" departLane="152839448#0_0" departPos="1.70" departPosLat="0.00" departSpeed="0.00" departDelay="11.00" arrival="314.00" arrivalLane="128643746#1_0" arrivalPos="15.76" arrivalPosLat="1.27" arrivalSpeed="0.21" duration="280.00" routeLength="1138.02" waitingTime="8.00" waitingCount="2" stopTime="0.00" timeLoss="51.91" rerouteNo="1" devices="tripinfo_pf_0.13_b0 person_pf_0.13_b0" vType="DEFAULT_BIKETYPE" speedFactor="0.91" vaporized=""/>
    <tripinfo id="pf_0.15_b0" depart="39.00" departLane="152839448#0_0" departPos="1.70" departPosLat="0.00" departSpeed="0.00" departDelay="12.00" arrival="315.00" arrivalLane="128643746#1_0" arrivalPos="15.76" arrivalPosLat="-1.27" arrivalSpeed="0.21" duration="276.00" routeLength="1138.02" waitingTime="6.00" waitingCount="2" stopTime="0.00" timeLoss="42.12" rerouteNo="1" devices="tripinfo_pf_0.15_b0 person_pf_0.15_b0" vType="DEFAULT_BIKETYPE" speedFactor="0.89" vaporized=""/>
    <tripinfo id="pf_0.16_b0" depart="41.00" departLane="152839448#0_0" departPos="1.70" departPosLat="0.00" departSpeed="0.00" departDelay="11.00" arrival="316.00" arrivalLane="128643746#1_0" arrivalPos="15.76" arrivalPosLat="-0.75" arrivalSpeed="0.10" duration="275.00" routeLength="1138.02" waitingTime="5.00" waitingCount="2" stopTime="0.00" timeLoss="49.69" rerouteNo="1" devices="tripinfo_pf_0.16_b0 person_pf_0.16_b0" vType="DEFAULT_BIKETYPE" speedFactor="0.92" vaporized=""/>
    <tripinfo id="pf_0.24_b0" depart="61.00" departLane="152839448#0_0" departPos="1.70" departPosLat="0.00" departSpeed="0.00" departDelay="20.00" arrival="318.00" arrivalLane="128643746#1_0" arrivalPos="15.76" arrivalPosLat="1.13" arrivalSpeed="0.08" duration="257.00" routeLength="1138.02" waitingTime="16.00" waitingCount="5" stopTime="0.00" timeLoss="68.78" rerouteNo="1" devices="tripinfo_pf_0.24_b0 person_pf_0.24_b0" vType="DEFAULT_BIKETYPE" speedFactor="1.10" vaporized=""/>
    <tripinfo id="pf_0.25_b0" depart="63.00" departLane="152839448#0_0" departPos="1.70" departPosLat="0.00" departSpeed="0.00" departDelay="22.00" arrival="320.00" arrivalLane="128643746#1_0" arrivalPos="15.76" arrivalPosLat="0.93" arrivalSpeed="0.67" duration="257.00" routeLength="1138.02" waitingTime="8.00" waitingCount="2" stopTime="0.00" timeLoss="38.10" rerouteNo="1" devices="tripinfo_pf_0.25_b0 person_pf_0.25_b0" vType="DEFAULT_BIKETYPE" speedFactor="0.95" vaporized=""/>
    <tripinfo id="pf_0.28_b0" depart="70.00" departLane="152839448#0_0" departPos="1.70" departPosLat="0.00" departSpeed="0.00" departDelay="26.00" arrival="320.00" arrivalLane="128643746#1_0" arrivalPos="15.76" arrivalPosLat="-1.27" arrivalSpeed="0.10" duration="250.00" routeLength="1138.02" waitingTime="10.00" waitingCount="2" stopTime="0.00" timeLoss="69.03" rerouteNo="1" devices="tripinfo_pf_0.28_b0 person_pf_0.28_b0" vType="DEFAULT_BIKETYPE" speedFactor="1.15" vaporized=""/>
    <tripinfo id="pf_0.17_b0" depart="43.00" departLane="152839448#0_0" departPos="1.70" departPosLat="0.00" departSpeed="0.00" departDelay="13.00" arrival="322.00" arrivalLane="128643746#1_0" arrivalPos="15.76" arrivalPosLat="1.27" arrivalSpeed="1.22" duration="279.00" routeLength="1138.02" waitingTime="2.00" waitingCount="2" stopTime="0.00" timeLoss="41.35" rerouteNo="1" devices="tripinfo_pf_0.17_b0 person_pf_0.17_b0" vType="DEFAULT_BIKETYPE" speedFactor="0.87" vaporized=""/>
    <tripinfo id="pf_0.32_b0" depart="80.00" departLane="152839448#0_0" departPos="1.70" departPosLat="0.00" departSpeed="0.00" departDelay="28.00" arrival="322.00" arrivalLane="128643746#1_0" arrivalPos="15.76" arrivalPosLat="0.13" arrivalSpeed="0.16" duration="242.00" routeLength="1138.02" waitingTime="1.00" waitingCount="1" stopTime="0.00" timeLoss="39.87" rerouteNo="1" devices="tripinfo_pf_0.32_b0 person_pf_0.32_b0" vType="DEFAULT_BIKETYPE" speedFactor="1.03" vaporized=""/>
    <tripinfo id="pf_0.18_b0" depart="46.00" departLane="152839448#0_0" departPos="1.70" departPosLat="0.00" departSpeed="0.00" departDelay="14.00" arrival="323.00" arrivalLane="128643746#1_0" arrivalPos="15.76" arrivalPosLat="-1.27" arrivalSpeed="0.19" duration="277.00" routeLength="1138.02" waitingTime="1.00" waitingCount="1" stopTime="0.00" timeLoss="36.16" rerouteNo="1" devices="tripinfo_pf_0.18_b0 person_pf_0.18_b0" vType="DEFAULT_BIKETYPE" speedFactor="0.86" vaporized=""/>
    <tripinfo id="pf_0.12_b0" depart="32.00" departLane="152839448#0_0" departPos="1.70" departPosLat="0.00" departSpeed="0.00" departDelay="11.00" arrival="325.00" arrivalLane="128643746#1_0" arrivalPos="15.76" arrivalPosLat="-1.27" arrivalSpeed="0.86" duration="293.00" routeLength="1138.02" waitingTime="8.00" waitingCount="2" stopTime="0.00" timeLoss="44.79" rerouteNo="1" devices="tripinfo_pf_0.12_b0 person_pf_0.12_b0" vType="DEFAULT_BIKETYPE" speedFactor="0.84" vaporized=""/>
    <tripinfo id="pf_0.34_b0" depart="85.00" departLane="152839448#0_0" departPos="1.70" departPosLat="0.00" departSpeed="0.00" departDelay="30.00" arrival="367.00" arrivalLane="128643746#1_0" arrivalPos="15.76" arrivalPosLat="1.27" arrivalSpeed="0.12" duration="282.00" routeLength="1138.02" waitingTime="43.00" waitingCount="3" stopTime="0.00" timeLoss="91.25" rerouteNo="1" devices="tripinfo_pf_0.34_b0 person_pf_0.34_b0" vType="DEFAULT_BIKETYPE" speedFactor="1.09" vaporized=""/>
    <tripinfo id="pf_0.36_b0" depart="90.00" departLane="152839448#0_0" departPos="1.70" departPosLat="0.00" departSpeed="0.00" departDelay="33.00" arrival="367.00" arrivalLane="128643746#1_0" arrivalPos="15.76" arrivalPosLat="-1.27" arrivalSpeed="0.14" duration="277.00" routeLength="1138.02" waitingTime="35.00" waitingCount="2" stopTime="0.00" timeLoss="74.31" rerouteNo="1" devices="tripinfo_pf_0.36_b0 person_pf_0.36_b0" vType="DEFAULT_BIKETYPE" speedFactor="1.03" vaporized=""/>
    <tripinfo id="pf_0.37_b0" depart="92.00" departLane="152839448#0_0" departPos="1.70" departPosLat="0.00" departSpeed="0.00" departDelay="35.00" arrival="370.00" arrivalLane="128643746#1_0" arrivalPos="15.76" arrivalPosLat="-1.27" arrivalSpeed="0.35" duration="278.00" routeLength="1138.02" waitingTime="37.00" waitingCount="2" stopTime="0.00" timeLoss="68.60" rerouteNo="1" devices="tripinfo_pf_0.37_b0 person_pf_0.37_b0" vType="DEFAULT_BIKETYPE" speedFactor="0.99" vaporized=""/>
    <tripinfo id="pf_0.29_b0" depart="73.00" departLane="152839448#0_0" departPos="1.70" departPosLat="0.00" departSpeed="0.00" departDelay="29.00" arrival="373.00" arrivalLane="128643746#1_0" arrivalPos="15.76" arrivalPosLat="-1.27" arrivalSpeed="0.21" duration="300.00" routeLength="1138.02" waitingTime="48.00" waitingCount="3" stopTime="0.00" timeLoss="79.72" rerouteNo="1" devices="tripinfo_pf_0.29_b0 person_pf_0.29_b0" vType="DEFAULT_BIKETYPE" speedFactor="0.94" vaporized=""/>
    <tripinfo id="pf_0.38_b0" depart="95.00" departLane="152839448#0_0" departPos="1.70" departPosLat="0.00" departSpeed="0.00" departDelay="34.00" arrival="373.00" arrivalLane="128643746#1_0" arrivalPos="15.76" arrivalPosLat="0.13" arrivalSpeed="0.14" duration="278.00" routeLength="1138.02" waitingTime="32.00" waitingCount="2" stopTime="0.00" timeLoss="82.65" rerouteNo="1" devices="tripinfo_pf_0.38_b0 person_pf_0.38_b0" vType="DEFAULT_BIKETYPE" speedFactor="1.07" vaporized=""/>
    <tripinfo id="pf_0.39_b0" depart="97.00" departLane="152839448#0_0" departPos="1.70" departPosLat="0.00" departSpeed="0.00" departDelay="34.00" arrival="376.00" arrivalLane="128643746#1_0" arrivalPos="15.76" arrivalPosLat="-1.27" arrivalSpeed="0.23" duration="279.00" routeLength="1138.02" waitingTime="26.00" waitingCount="2" stopTime="0.00" timeLoss="64.88" rerouteNo="1" devices="tripinfo_pf_0.39_b0 person_pf_0.39_b0" vType="DEFAULT_BIKETYPE" speedFactor="0.97" vaporized=""/>
    <tripinfo id="pf_0.27_b0" depart="68.00" departLane="152839448#0_0" departPos="1.70" departPosLat="0.00" departSpeed="0.00" departDelay="25.00" arrival="378.00" arrivalLane="128643746#1_0" arrivalPos="15.76" arrivalPosLat="1.13" arrivalSpeed="0.18" duration="310.00" routeLength="1138.02" waitingTime="48.00" waitingCount="3" stopTime="0.00" timeLoss="99.48" rerouteNo="1" devices="tripinfo_pf_0.27_b0 person_pf_0.27_b0" vType="DEFAULT_BIKETYPE" speedFactor="0.99" vaporized=""/>
    <tripinfo id="pf_0.35_b0" depart="88.00" departLane="152839448#0_0" departPos="1.70" departPosLat="0.00" departSpeed="0.00" departDelay="32.00" arrival="380.00" arrivalLane="128643746#1_0" arrivalPos="15.76" arrivalPosLat="-1.27" arrivalSpeed="0.15" duration="292.00" routeLength="1138.02" waitingTime="34.00" waitingCount="2" stopTime="0.00" timeLoss="66.26" rerouteNo="1" devices="tripinfo_pf_0.35_b0 person_pf_0.35_b0" vType="DEFAULT_BIKETYPE" speedFactor="0.92" vaporized=""/>
    <tripinfo id="pf_0.23_b0" depart="58.00" departLane="152839448#0_0" departPos="1.70" departPosLat="0.00" departSpeed="0.00" departDelay="21.00" arrival="382.00" arrivalLane="128643746#1_0" arrivalPos="15.76" arrivalPosLat="-0.27" arrivalSpeed="0.11" duration="324.00" routeLength="1138.02" waitingTime="53.00" waitingCount="4" stopTime="0.00" timeLoss="93.90" rerouteNo="1" devices="tripinfo_pf_0.23_b0 person_pf_0.23_b0" vType="DEFAULT_BIKETYPE" speedFactor="0.90" vaporized=""/>
    <tripinfo id="pf_0.51_b0" depart="128.00" departLane="152839448#0_0" departPos="1.70" departPosLat="0.00" departSpeed="0.00" departDelay="27.00" arrival="383.00" arrivalLane="128643746#1_0" arrivalPos="15.76" arrivalPosLat="1.27" arrivalSpeed="0.09" duration="255.00" routeLength="1138.02" waitingTime="9.00" waitingCount="2" stopTime="0.00" timeLoss="63.30" rerouteNo="1" devices="tripinfo_pf_0.51_b0 person_pf_0.51_b0" vType="DEFAULT_BIKETYPE" speedFactor="1.08" vaporized=""/>
    <tripinfo id="pf_0.45_b0" depart="113.00" departLane="152839448#0_0" departPos="1.70" departPosLat="0.00" departSpeed="0.00" departDelay="28.00" arrival="384.00" arrivalLane="128643746#1_0" arrivalPos="15.76" arrivalPosLat="-1.27" arrivalSpeed="0.09" duration="271.00" routeLength="1138.02" waitingTime="16.00" waitingCount="3" stopTime="0.00" timeLoss="50.94" rerouteNo="1" devices="tripinfo_pf_0.45_b0 person_pf_0.45_b0" vType="DEFAULT_BIKETYPE" speedFactor="0.94" vaporized=""/>
    <tripinfo id="pf_0.41_b0" depart="102.00" departLane="152839448#0_0" departPos="1.70" departPosLat="0.00" departSpeed="0.00" departDelay="31.00" arrival="385.00" arrivalLane="128643746#1_0" arrivalPos="15.76" arrivalPosLat="0.00" arrivalSpeed="0.72" duration="283.00" routeLength="1138.02" waitingTime="18.00" waitingCount="2" stopTime="0.00" timeLoss="55.84" rerouteNo="1" devices="tripinfo_pf_0.41_b0 person_pf_0.41_b0" vType="DEFAULT_BIKETYPE" speedFactor="0.91" vaporized=""/>
    <tripinfo id="pf_0.48_b0" depart="121.00" departLane="152839448#0_0" departPos="1.70" departPosLat="0.00" departSpeed="0.00" departDelay="23.00" arrival="386.00" arrivalLane="128643746#1_0" arrivalPos="15.76" arrivalPosLat="0.00" arrivalSpeed="2.84" duration="265.00" routeLength="1138.02" waitingTime="15.00" waitingCount="2" stopTime="0.00" timeLoss="79.77" rerouteNo="1" devices="tripinfo_pf_0.48_b0 person_pf_0.48_b0" vType="DEFAULT_BIKETYPE" speedFactor="1.12" vaporized=""/>
    <tripinfo id="pf_0.52_b0" depart="130.00" departLane="152839448#0_0" departPos="1.70" departPosLat="0.00" departSpeed="0.00" departDelay="28.00" arrival="386.00" arrivalLane="128643746#1_0" arrivalPos="15.76" arrivalPosLat="1.27" arrivalSpeed="0.18" duration="256.00" routeLength="1138.02" waitingTime="11.00" waitingCount="2" stopTime="0.00" timeLoss="77.26" rerouteNo="1" devices="tripinfo_pf_0.52_b0 person_pf_0.52_b0" vType="DEFAULT_BIKETYPE" speedFactor="1.16" vaporized=""/>
    <tripinfo id="pf_0.30_b0" depart="75.00" departLane="152839448#0_0" departPos="1.70" departPosLat="0.00" departSpeed="0.00" departDelay="30.00" arrival="388.00" arrivalLane="128643746#1_0" arrivalPos="15.76" arrivalPosLat="-1.27" arrivalSpeed="0.08" duration="313.00" routeLength="1138.02" waitingTime="43.00" waitingCount="5" stopTime="0.00" timeLoss="86.52" rerouteNo="1" devices="tripinfo_pf_0.30_b0 person_pf_0.30_b0" vType="DEFAULT_BIKETYPE" speedFactor="0.92" vaporized=""/>
    <tripinfo id="pf_0.47_b0" depart="118.00" departLane="152839448#0_0" departPos="1.70" departPosLat="0.00" departSpeed="0.00" departDelay="21.00" arrival="388.00" arrivalLane="128643746#1_0" arrivalPos="15.76" arrivalPosLat="1.27" arrivalSpeed="0.90" duration="270.00" routeLength="1138.02" waitingTime="20.00" waitingCount="4" stopTime="0.00" timeLoss="74.92" rerouteNo="1" devices="tripinfo_pf_0.47_b0 person_pf_0.47_b0" vType="DEFAULT_BIKETYPE" speedFactor="1.07" vaporized=""/>
    <tripinfo id="pf_0.44_b0" depart="110.00" departLane="152839448#0_0" departPos="1.70" departPosLat="0.00" departSpeed="0.00" departDelay="36.00" arrival="389.00" arrivalLane="128643746#1_0" arrivalPos="15.76" arrivalPosLat="0.00" arrivalSpeed="0.56" duration="279.00" routeLength="1138.02" waitingTime="19.00" waitingCount="3" stopTime="0.00" timeLoss="87.27" rerouteNo="1" devices="tripinfo_pf_0.44_b0 person_pf_0.44_b0" vType="DEFAULT_BIKETYPE" speedFactor="1.08" vaporized=""/>
    <tripinfo id="pf_0.31_b0" depart="78.00" departLane="152839448#0_0" departPos="1.70" departPosLat="0.00" departSpeed="0.00" departDelay="31.00" arrival="390.00" arrivalLane="128643746#1_0" arrivalPos="15.76" arrivalPosLat="-1.27" arrivalSpeed="1.16" duration="312.00" routeLength="1138.02" waitingTime="39.00" waitingCount="4" stopTime="0.00" timeLoss="87.66" rerouteNo="1" devices="tripinfo_pf_0.31_b0 person_pf_0.31_b0" vType="DEFAULT_BIKETYPE" speedFactor="0.93" vaporized=""/>
    <tripinfo id="pf_0.59_b0" depart="148.00" departLane="152839448#0_0" departPos="1.70" departPosLat="0.00" departSpeed="0.00" departDelay="36.00" arrival="391.00" arrivalLane="128643746#1_0" arrivalPos="15.76" arrivalPosLat="1.27" arrivalSpeed="0.20" duration="243.00" routeLength="1138.02" waitingTime="0.00" waitingCount="0" stopTime="0.00" timeLoss="54.87" rerouteNo="1" devices="tripinfo_pf_0.59_b0 person_pf_0.59_b0" vType="DEFAULT_BIKETYPE" speedFactor="1.10" vaporized=""/>
    <tripinfo id="pf_0.55_b0" depart="138.00" departLane="152839448#0_0" departPos="1.70" departPosLat="0.00" departSpeed="0.00" departDelay="31.00" arrival="392.00" arrivalLane="128643746#1_0" arrivalPos="15.76" arrivalPosLat="0.13" arrivalSpeed="0.12" duration="254.00" routeLength="1138.02" waitingTime="4.00" waitingCount="1" stopTime="0.00" timeLoss="40.06" rerouteNo="1" devices="tripinfo_pf_0.55_b0 person_pf_0.55_b0" vType="DEFAULT_BIKETYPE" speedFactor="0.97" vaporized=""/>
    <tripinfo id="pf_0.58_b0" depart="145.00" departLane="152839448#0_0" departPos="1.70" departPosLat="0.00" departSpeed="0.00" departDelay="34.00" arrival="393.00" arrivalLane="128643746#1_0" arrivalPos="15.76" arrivalPosLat="1.27" arrivalSpeed="0.40" duration="248.00" routeLength="1138.02" waitingTime="3.00" waitingCount="1" stopTime="0.00" timeLoss="67.75" rerouteNo="1" devices="tripinfo_pf_0.58_b0 person_pf_0.58_b0" vType="DEFAULT_BIKETYPE" speedFactor="1.15" vaporized=""/>
    <tripinfo id="pf_0.26_b0" depart="66.00" departLane="152839448#0_0" departPos="1.70" departPosLat="0.00" departSpeed="0.00" departDelay="23.00" arrival="394.00" arrivalLane="128643746#1_0" arrivalPos="15.76" arrivalPosLat="-1.27" arrivalSpeed="0.18" duration="328.00" routeLength="1138.02" waitingTime="45.00" waitingCount="5" stopTime="0.00" timeLoss="115.90" rerouteNo="1" devices="tripinfo_pf_0.26_b0 person_pf_0.26_b0" vType="DEFAULT_BIKETYPE" speedFactor="0.98" vaporized=""/>
    <tripinfo id="pf_0.42_b0" depart="105.00" departLane="152839448#0_0" departPos="1.70" departPosLat="0.00" departSpeed="0.00" departDelay="32.00" arrival="397.00" arrivalLane="128643746#1_0" arrivalPos="15.76" arrivalPosLat="-1.27" arrivalSpeed="0.12" duration="292.00" routeLength="1138.02" waitingTime="18.00" waitingCount="2" stopTime="0.00" timeLoss="88.43" rerouteNo="1" devices="tripinfo_pf_0.42_b0 person_pf_0.42_b0" vType="DEFAULT_BIKETYPE" speedFactor="1.02" vaporized=""/>
    <tripinfo id="pf_0.43_b0" depart="107.00" departLane="152839448#0_0" departPos="1.70" departPosLat="0.00" departSpeed="0.00" departDelay="33.00" arrival="399.00" arrivalLane="128643746#1_0" arrivalPos="15.76" arrivalPosLat="-0.27" arrivalSpeed="1.06" duration="292.00" routeLength="1138.02" waitingTime="11.00" waitingCount="3" stopTime="0.00" timeLoss="53.46" rerouteNo="1" devices="tripinfo_pf_0.43_b0 person_pf_0.43_b0" vType="DEFAULT_BIKETYPE" speedFactor="0.87" vaporized=""/>
    <tripinfo id="pf_0.49_b0" depart="123.00" departLane="152839448#0_0" departPos="1.70" departPosLat="0.00" departSpeed="0.00" departDelay="24.00" arrival="400.00" arrivalLane="128643746#1_0" arrivalPos="15.76" arrivalPosLat="-1.27" arrivalSpeed="0.56" duration="277.00" routeLength="1138.02" waitingTime="11.00" waitingCount="2" stopTime="0.00" timeLoss="54.02" rerouteNo="1" devices="tripinfo_pf_0.49_b0 person_pf_0.49_b0" vType="DEFAULT_BIKETYPE" speedFactor="0.93" vaporized=""/>
    <tripinfo id="pf_0.53_b0" depart="133.00" departLane="152839448#0_0" departPos="1.70" departPosLat="0.00" departSpeed="0.00" departDelay="29.00" arrival="402.00" arrivalLane="128643746#1_0" arrivalPos="15.76" arrivalPosLat="1.27" arrivalSpeed="0.18" duration="269.00" routeLength="1138.02" waitingTime="9.00" waitingCount="1" stopTime="0.00" timeLoss="49.11" rerouteNo="1" devices="tripinfo_pf_0.53_b0 person_pf_0.53_b0" vType="DEFAULT_BIKETYPE" speedFactor="0.95" vaporized=""/>
    <tripinfo id="pf_0.50_b0" depart="125.00" departLane="152839448#0_0" departPos="1.70" departPosLat="0.00" departSpeed="0.00" departDelay="24.00" arrival="404.00" arrivalLane="128643746#1_0" arrivalPos="15.76" arrivalPosLat="-1.27" arrivalSpeed="0.23" duration="279.00" routeLength="1138.02" waitingTime="14.00" waitingCount="3" stopTime="0.00" timeLoss="56.49" rerouteNo="1" devices="tripinfo_pf_0.50_b0 person_pf_0.50_b0" vType="DEFAULT_BIKETYPE" speedFactor="0.93" vaporized=""/>
    <tripinfo id="pf_0.61_b0" depart="153.00" departLane="152839448#0_0" departPos="1.70" departPosLat="0.00" departSpeed="0.00" departDelay="35.00" arrival="405.00" arrivalLane="128643746#1_0" arrivalPos="15.76" arrivalPosLat="1.27" arrivalSpeed="0.25" duration="252.00" routeLength="1138.02" waitingTime="0.00" waitingCount="0" stopTime="0.00" timeLoss="66.29" rerouteNo="1" devices="tripinfo_pf_0.61_b0 person_pf_0.61_b0" vType="DEFAULT_BIKETYPE" speedFactor="1.12" vaporized=""/>
    <tripinfo id="pf_0.40_b0" depart="100.00" departLane="152839448#0_0" departPos="1.70" departPosLat="0.00" departSpeed="0.00" departDelay="31.00" arrival="407.00" arrivalLane="128643746#1_0" arrivalPos="15.76" arrivalPosLat="0.13" arrivalSpeed="0.13" duration="307.00" routeLength="1138.02" waitingTime="17.00" waitingCount="3" stopTime="0.00" timeLoss="64.80" rerouteNo="1" devices="tripinfo_pf_0.40_b0 person_pf_0.40_b0" vType="DEFAULT_BIKETYPE" speedFactor="0.86" vaporized=""/>
    <tripinfo id="pf_0.54_b0" depart="135.00" departLane="152839448#0_0" departPos="1.70" departPosLat="0.00" departSpeed="0.00" departDelay="28.00" arrival="407.00" arrivalLane="128643746#1_0" arrivalPos="15.76" arrivalPosLat="-1.27" arrivalSpeed="0.12" duration="272.00" routeLength="1138.02" waitingTime="10.00" waitingCount="4" stopTime="0.00" timeLoss="70.65" rerouteNo="1" devices="tripinfo_pf_0.54_b0 person_pf_0.54_b0" vType="DEFAULT_BIKETYPE" speedFactor="1.03" vaporized=""/>
    <tripinfo id="pf_0.56_b0" depart="140.00" departLane="152839448#0_0" departPos="1.70" departPosLat="0.00" departSpeed="0.00" departDelay="30.00" arrival="409.00" arrivalLane="128643746#1_0" arrivalPos="15.76" arrivalPosLat="-1.27" arrivalSpeed="1.01" duration="269.00" routeLength="1138.02" waitingTime="6.00" waitingCount="3" stopTime="0.00" timeLoss="46.87" rerouteNo="1" devices="tripinfo_pf_0.56_b0 person_pf_0.56_b0" vType="DEFAULT_BIKETYPE" speedFactor="0.94" vaporized=""/>