<?xml version="1.0" encoding="UTF-8"?>

<!-- generated on 2023-04-26 16:19:46 by Eclipse SUMO sumo Version 1.17.0
<configuration xmlns:xsi="http://www.w3.org/2001/XMLSchema-instance" xsi:noNamespaceSchemaLocation="http://sumo.dlr.de/xsd/sumoConfiguration.xsd">

    <input>
        <net-file value="C:\erdm_ja\sip-svn-trunk\papers\DLR\SUMO_Conference2023\tutorial\05_runMany.final\osm.net.xml.gz"/>
        <route-files value="C:\erdm_ja\sip-svn-trunk\papers\DLR\SUMO_Conference2023\tutorial\05_runMany.final\bikes.rou.xml"/>
    </input>

    <output>
        <output-prefix value="test.sumocfg_0\3."/>
        <tripinfo-output value="C:\erdm_ja\sip-svn-trunk\papers\DLR\SUMO_Conference2023\tutorial\05_runMany.final\tripinfos.xml"/>
        <personinfo-output value="C:\erdm_ja\sip-svn-trunk\papers\DLR\SUMO_Conference2023\tutorial\05_runMany.final\personinfos.xml"/>
        <edgedata-output value="C:\erdm_ja\sip-svn-trunk\papers\DLR\SUMO_Conference2023\tutorial\05_runMany.final\edgedata.xml"/>
        <statistic-output value="C:\erdm_ja\sip-svn-trunk\papers\DLR\SUMO_Conference2023\tutorial\05_runMany.final\stats.xml"/>
    </output>

    <processing>
        <lateral-resolution value="0.8"/>
        <tls.actuated.jam-threshold value="30"/>
    </processing>

    <report>
        <no-step-log value="true"/>
    </report>

    <random_number>
        <seed value="3"/>
    </random_number>

</configuration>
-->

<meandata xmlns:xsi="http://www.w3.org/2001/XMLSchema-instance" xsi:noNamespaceSchemaLocation="http://sumo.dlr.de/xsd/meandata_file.xsd">
    <interval begin="0.00" end="30292.00" id="DEFAULT_EDGEDATA">
        <edge id="-128643746#1" sampledSeconds="7347.44" traveltime="13.11" overlapTraveltime="13.71" density="7.70" laneDensity="7.70" occupancy="1.18" waitingTime="0.00" timeLoss="1176.12" speed="2.42" speedRelative="0.87" departed="0" arrived="0" entered="536" left="536" laneChangedFrom="0" laneChangedTo="0"/>
        <edge id="-142575674#5" sampledSeconds="3897.54" traveltime="6.95" overlapTraveltime="7.27" density="3.69" laneDensity="3.69" occupancy="0.57" waitingTime="0.00" timeLoss="343.56" speed="5.01" speedRelative="0.36" departed="0" arrived="0" entered="536" left="536" laneChangedFrom="0" laneChangedTo="0"/>
        <edge id="-142575688#0" sampledSeconds="4832.05" traveltime="8.69" overlapTraveltime="9.02" density="3.67" laneDensity="3.67" occupancy="0.57" waitingTime="0.00" timeLoss="436.06" speed="5.00" speedRelative="0.36" departed="0" arrived="0" entered="536" left="536" laneChangedFrom="0" laneChangedTo="0"/>
        <edge id="-142575688#1" sampledSeconds="4320.91" traveltime="7.75" overlapTraveltime="8.06" density="3.60" laneDensity="3.60" occupancy="0.55" waitingTime="0.00" timeLoss="303.02" speed="5.11" speedRelative="0.37" departed="0" arrived="0" entered="536" left="536" laneChangedFrom="0" laneChangedTo="0"/>
        <edge id="-142575688#10" sampledSeconds="831.09" traveltime="1.24" overlapTraveltime="1.55" density="4.33" laneDensity="4.33" occupancy="0.55" waitingTime="0.00" timeLoss="58.30" speed="5.11" speedRelative="0.37" departed="0" arrived="0" entered="536" left="536" laneChangedFrom="0" laneChangedTo="0"/>
        <edge id="-142575688#2" sampledSeconds="356.35" traveltime="0.35" overlapTraveltime="0.66" density="6.50" laneDensity="6.50" occupancy="0.55" waitingTime="0.00" timeLoss="24.04" speed="5.13" speedRelative="0.37" departed="0" arrived="0" entered="536" left="536" laneChangedFrom="0" laneChangedTo="0"/>
        <edge id="-142575688#3" sampledSeconds="1667.01" traveltime="2.80" overlapTraveltime="3.11" density="3.83" laneDensity="3.83" occupancy="0.55" waitingTime="0.00" timeLoss="109.75" speed="5.14" speedRelative="0.37" departed="0" arrived="0" entered="536" left="536" laneChangedFrom="0" laneChangedTo="0"/>
        <edge id="-142575688#5" sampledSeconds="220.72" traveltime="0.08" overlapTraveltime="0.41" density="17.77" laneDensity="17.77" occupancy="0.58" waitingTime="0.00" timeLoss="24.84" speed="4.88" speedRelative="0.35" departed="0" arrived="0" entered="536" left="536" laneChangedFrom="0" laneChangedTo="0"/>
        <edge id="-142575688#6" sampledSeconds="11223.47" traveltime="20.58" overlapTraveltime="20.94" density="3.52" laneDensity="3.52" occupancy="0.55" waitingTime="0.00" timeLoss="819.64" speed="5.10" speedRelative="0.37" departed="0" arrived="0" entered="536" left="536" laneChangedFrom="0" laneChangedTo="0"/>
        <edge id="-142575688#7" sampledSeconds="1007.55" traveltime="1.57" overlapTraveltime="1.88" density="4.16" laneDensity="4.16" occupancy="0.55" waitingTime="0.00" timeLoss="72.02" speed="5.11" speedRelative="0.37" departed="0" arrived="0" entered="536" left="536" laneChangedFrom="0" laneChangedTo="0"/>
        <edge id="-142575688#8" sampledSeconds="204.34" traveltime="0.07" overlapTraveltime="0.38" density="19.27" laneDensity="19.27" occupancy="0.55" waitingTime="0.00" timeLoss="14.31" speed="5.11" speedRelative="0.37" departed="0" arrived="0" entered="536" left="536" laneChangedFrom="0" laneChangedTo="0"/>
        <edge id="-142575688#9" sampledSeconds="667.91" traveltime="0.93" overlapTraveltime="1.25" density="4.61" laneDensity="4.61" occupancy="0.55" waitingTime="0.00" timeLoss="46.18" speed="5.12" speedRelative="0.37" departed="0" arrived="0" entered="536" left="536" laneChangedFrom="0" laneChangedTo="0"/>
        <edge id="1051578539#3" sampledSeconds="55090.10" traveltime="99.81" overlapTraveltime="102.82" density="9.10" laneDensity="9.10" occupancy="1.44" waitingTime="26487.00" timeLoss="35476.60" speed="1.96" speedRelative="0.35" departed="0" arrived="0" entered="536" left="536" laneChangedFrom="0" laneChangedTo="0"/>
        <edge id="1051578542#1" sampledSeconds="320.07" traveltime="0.17" overlapTraveltime="0.60" density="52.83" laneDensity="52.83" occupancy="0.83" waitingTime="62.00" timeLoss="144.65" speed="3.01" speedRelative="0.54" departed="0" arrived="0" entered="536" left="536" laneChangedFrom="0" laneChangedTo="0"/>
        <edge id="128643746#1" sampledSeconds="9016.31" traveltime="16.18" overlapTraveltime="16.84" density="9.44" laneDensity="9.44" occupancy="1.45" waitingTime="125.00" timeLoss="2571.82" speed="1.97" speedRelative="0.71" departed="536" arrived="536" entered="536" left="536" laneChangedFrom="0" laneChangedTo="0"/>
        <edge id="142575674#4" sampledSeconds="6656.81" traveltime="11.91" overlapTraveltime="12.42" density="6.31" laneDensity="6.31" occupancy="0.98" waitingTime="1705.00" timeLoss="3104.74" speed="2.93" speedRelative="0.21" departed="0" arrived="0" entered="536" left="536" laneChangedFrom="0" laneChangedTo="0"/>
        <edge id="142575688#0" sampledSeconds="4842.59" traveltime="8.71" overlapTraveltime="9.03" density="3.67" laneDensity="3.67" occupancy="0.57" waitingTime="0.00" timeLoss="440.85" speed="4.99" speedRelative="0.36" departed="0" arrived="0" entered="536" left="536" laneChangedFrom="0" laneChangedTo="0"/>
        <edge id="142575688#1" sampledSeconds="6487.63" traveltime="11.55" overlapTraveltime="12.10" density="5.40" laneDensity="5.40" occupancy="0.83" waitingTime="262.00" timeLoss="2465.39" speed="3.41" speedRelative="0.25" departed="0" arrived="0" entered="536" left="536" laneChangedFrom="0" laneChangedTo="0"/>
        <edge id="142575688#10" sampledSeconds="830.71" traveltime="1.24" overlapTraveltime="1.55" density="4.33" laneDensity="4.33" occupancy="0.55" waitingTime="0.00" timeLoss="57.09" speed="5.12" speedRelative="0.37" departed="0" arrived="0" entered="536" left="536" laneChangedFrom="0" laneChangedTo="0"/>
        <edge id="142575688#2" sampledSeconds="472.02" traveltime="0.49" overlapTraveltime="0.88" density="8.61" laneDensity="8.61" occupancy="0.72" waitingTime="0.00" timeLoss="139.36" speed="3.87" speedRelative="0.28" departed="0" arrived="0" entered="536" left="536" laneChangedFrom="0" laneChangedTo="0"/>
        <edge id="142575688#3" sampledSeconds="1758.30" traveltime="2.95" overlapTraveltime="3.28" density="4.05" laneDensity="4.05" occupancy="0.58" waitingTime="0.00" timeLoss="203.25" speed="4.86" speedRelative="0.35" departed="0" arrived="0" entered="536" left="536" laneChangedFrom="0" laneChangedTo="0"/>
        <edge id="142575688#5" sampledSeconds="213.43" traveltime="0.09" overlapTraveltime="0.40" density="15.66" laneDensity="15.66" occupancy="0.55" waitingTime="0.00" timeLoss="13.44" speed="5.15" speedRelative="0.37" departed="0" arrived="0" entered="536" left="536" laneChangedFrom="0" laneChangedTo="0"/>
        <edge id="142575688#6" sampledSeconds="11219.99" traveltime="20.62" overlapTraveltime="20.93" density="3.52" laneDensity="3.52" occupancy="0.55" waitingTime="0.00" timeLoss="799.99" speed="5.10" speedRelative="0.37" departed="0" arrived="0" entered="536" left="536" laneChangedFrom="0" laneChangedTo="0"/>
        <edge id="142575688#7" sampledSeconds="1024.70" traveltime="1.60" overlapTraveltime="1.91" density="4.17" laneDensity="4.17" occupancy="0.56" waitingTime="0.00" timeLoss="77.43" speed="5.08" speedRelative="0.37" departed="0" arrived="0" entered="536" left="536" laneChangedFrom="0" laneChangedTo="0"/>
        <edge id="142575688#8" sampledSeconds="205.64" traveltime="0.07" overlapTraveltime="0.38" density="19.40" laneDensity="19.40" occupancy="0.56" waitingTime="0.00" timeLoss="15.41" speed="5.08" speedRelative="0.37" departed="0" arrived="0" entered="536" left="536" laneChangedFrom="0" laneChangedTo="0"/>
        <edge id="142575688#9" sampledSeconds="668.34" traveltime="0.93" overlapTraveltime="1.25" density="4.62" laneDensity="4.62" occupancy="0.55" waitingTime="0.00" timeLoss="45.93" speed="5.12" speedRelative="0.37" departed="0" arrived="0" entered="536" left="536" laneChangedFrom="0" laneChangedTo="0"/>
        <edge id="143308542#5" sampledSeconds="11086.52" traveltime="20.36" overlapTraveltime="20.68" density="3.57" laneDensity="1.78" occupancy="0.28" waitingTime="0.00" timeLoss="937.03" speed="5.04" speedRelative="0.36" departed="0" arrived="0" entered="536" left="536" laneChangedFrom="3" laneChangedTo="3"/>
        <edge id="143308542#7" sampledSeconds="3870.83" traveltime="6.90" overlapTraveltime="7.22" density="3.67" laneDensity="1.84" occupancy="0.28" waitingTime="0.00" timeLoss="325.58" speed="5.04" speedRelative="0.36" departed="0" arrived="0" entered="536" left="536" laneChangedFrom="1" laneChangedTo="1"/>
        <edge id="143308542#8" sampledSeconds="7245.59" traveltime="13.07" overlapTraveltime="13.52" density="4.93" laneDensity="2.46" occupancy="0.38" waitingTime="1064.00" timeLoss="2358.45" speed="3.71" speedRelative="0.27" departed="0" arrived="0" entered="536" left="536" laneChangedFrom="0" laneChangedTo="0"/>
        <edge id="143308552#1" sampledSeconds="9427.63" traveltime="17.20" overlapTraveltime="17.59" density="3.98" laneDensity="1.99" occupancy="0.31" waitingTime="228.00" timeLoss="1654.00" speed="4.54" speedRelative="0.33" departed="0" arrived="0" entered="536" left="536" laneChangedFrom="0" laneChangedTo="0"/>
        <edge id="152839448#0" sampledSeconds="3919.27" traveltime="7.63" overlapTraveltime="8.00" density="7.13" laneDensity="2.38" occupancy="0.37" waitingTime="234.00" timeLoss="2158.38" speed="2.47" speedRelative="0.18" departed="536" arrived="0" entered="0" left="536" laneChangedFrom="0" laneChangedTo="0"/>
        <edge id="318210389#0" sampledSeconds="8074.55" traveltime="14.57" overlapTraveltime="15.06" density="6.59" laneDensity="1.65" occupancy="0.26" waitingTime="2029.00" timeLoss="3970.36" speed="2.79" speedRelative="0.20" departed="0" arrived="0" entered="536" left="536" laneChangedFrom="0" laneChangedTo="0"/>
        <edge id="52036180#5" sampledSeconds="7552.09" traveltime="28.23" overlapTraveltime="29.16" density="5.13" laneDensity="1.71" occupancy="0.27" waitingTime="116.00" timeLoss="5187.04" speed="1.72" speedRelative="0.12" departed="0" arrived="536" entered="536" left="0" laneChangedFrom="0" laneChangedTo="0"/>
        <edge id="541676219" sampledSeconds="6997.83" traveltime="12.74" overlapTraveltime="13.06" density="3.56" laneDensity="1.19" occupancy="0.19" waitingTime="0.00" timeLoss="514.23" speed="5.09" speedRelative="0.37" departed="0" arrived="0" entered="536" left="536" laneChangedFrom="0" laneChangedTo="0"/>
        <edge id="670062907#1" sampledSeconds="6276.79" traveltime="11.33" overlapTraveltime="11.71" density="4.26" laneDensity="2.13" occupancy="0.33" waitingTime="80.00" timeLoss="1376.29" speed="4.29" speedRelative="0.31" departed="0" arrived="0" entered="536" left="536" laneChangedFrom="274" laneChangedTo="274"/>
        <edge id="670062907#2" sampledSeconds="5994.57" traveltime="10.84" overlapTraveltime="11.18" density="4.33" laneDensity="2.16" occupancy="0.33" waitingTime="87.00" timeLoss="1375.57" speed="4.23" speedRelative="0.30" departed="0" arrived="0" entered="536" left="536" laneChangedFrom="199" laneChangedTo="199"/>
        <edge id="670062907#4" sampledSeconds="11809.35" traveltime="21.60" overlapTraveltime="22.03" density="4.47" laneDensity="2.23" occupancy="0.35" waitingTime="1330.00" timeLoss="3140.49" speed="4.03" speedRelative="0.29" departed="0" arrived="0" entered="536" left="536" laneChangedFrom="8" laneChangedTo="8"/>
        <edge id="670062909#1" sampledSeconds="18440.03" traveltime="33.99" overlapTraveltime="34.40" density="7.80" laneDensity="2.60" occupancy="0.41" waitingTime="7403.00" timeLoss="10665.77" speed="2.32" speedRelative="0.17" departed="0" arrived="0" entered="536" left="536" laneChangedFrom="0" laneChangedTo="0"/>
        <edge id="670062912#1" sampledSeconds="20014.25" traveltime="36.97" overlapTraveltime="37.34" density="3.85" laneDensity="1.28" occupancy="0.20" waitingTime="681.00" timeLoss="3135.05" speed="4.63" speedRelative="0.33" departed="0" arrived="0" entered="536" left="536" laneChangedFrom="0" laneChangedTo="0"/>
        <edge id="81639675#1" sampledSeconds="7769.37" traveltime="14.05" overlapTraveltime="14.50" density="11.38" laneDensity="3.79" occupancy="0.59" waitingTime="3762.00" timeLoss="5414.36" speed="1.67" speedRelative="0.12" departed="0" arrived="0" entered="536" left="536" laneChangedFrom="0" laneChangedTo="0"/>
        <edge id="976351540#1" sampledSeconds="11672.50" traveltime="21.34" overlapTraveltime="21.78" density="6.11" laneDensity="2.04" occupancy="0.32" waitingTime="1999.00" timeLoss="5371.34" speed="2.97" speedRelative="0.21" departed="0" arrived="0" entered="536" left="536" laneChangedFrom="0" laneChangedTo="0"/>
    </interval>
</meandata>
