<?xml version="1.0" encoding="UTF-8"?>

<!-- generated on 2023-04-26 16:19:46 by Eclipse SUMO sumo Version 1.17.0
<configuration xmlns:xsi="http://www.w3.org/2001/XMLSchema-instance" xsi:noNamespaceSchemaLocation="http://sumo.dlr.de/xsd/sumoConfiguration.xsd">

    <input>
        <net-file value="C:\erdm_ja\sip-svn-trunk\papers\DLR\SUMO_Conference2023\tutorial\05_runMany.final\osm.net.xml.gz"/>
        <route-files value="C:\erdm_ja\sip-svn-trunk\papers\DLR\SUMO_Conference2023\tutorial\05_runMany.final\bikes.rou.xml"/>
    </input>

    <output>
        <output-prefix value="test.sumocfg_0\3."/>
        <tripinfo-output value="C:\erdm_ja\sip-svn-trunk\papers\DLR\SUMO_Conference2023\tutorial\05_runMany.final\tripinfos.xml"/>
        <personinfo-output value="C:\erdm_ja\sip-svn-trunk\papers\DLR\SUMO_Conference2023\tutorial\05_runMany.final\personinfos.xml"/>
        <edgedata-output value="C:\erdm_ja\sip-svn-trunk\papers\DLR\SUMO_Conference2023\tutorial\05_runMany.final\edgedata.xml"/>
        <statistic-output value="C:\erdm_ja\sip-svn-trunk\papers\DLR\SUMO_Conference2023\tutorial\05_runMany.final\stats.xml"/>
    </output>

    <processing>
        <lateral-resolution value="0.8"/>
        <tls.actuated.jam-threshold value="30"/>
    </processing>

    <report>
        <no-step-log value="true"/>
    </report>

    <random_number>
        <seed value="3"/>
    </random_number>

</configuration>
-->

<tripinfos xmlns:xsi="http://www.w3.org/2001/XMLSchema-instance" xsi:noNamespaceSchemaLocation="http://sumo.dlr.de/xsd/tripinfo_file.xsd">
    <tripinfo id="pf_0.8_b0" depart="22.00" departLane="152839448#0_0" departPos="1.70" departPosLat="0.00" departSpeed="0.00" departDelay="6.00" arrival="244.00" arrivalLane="128643746#1_0" arrivalPos="15.76" arrivalPosLat="-1.27" arrivalSpeed="0.53" duration="222.00" routeLength="1138.02" waitingTime="3.00" waitingCount="1" stopTime="0.00" timeLoss="31.75" rerouteNo="1" devices="tripinfo_pf_0.8_b0 person_pf_0.8_b0" vType="DEFAULT_BIKETYPE" speedFactor="1.09" vaporized=""/>
    <tripinfo id="pf_0.1_b0" depart="4.00" departLane="152839448#0_0" departPos="1.70" departPosLat="0.00" departSpeed="0.00" departDelay="2.00" arrival="254.00" arrivalLane="128643746#1_0" arrivalPos="15.76" arrivalPosLat="-1.27" arrivalSpeed="0.08" duration="250.00" routeLength="1138.02" waitingTime="11.00" waitingCount="3" stopTime="0.00" timeLoss="40.90" rerouteNo="1" devices="tripinfo_pf_0.1_b0 person_pf_0.1_b0" vType="DEFAULT_BIKETYPE" speedFactor="0.99" vaporized=""/>
    <tripinfo id="pf_0.5_b0" depart="14.00" departLane="152839448#0_0" departPos="1.70" departPosLat="0.00" departSpeed="0.00" departDelay="2.00" arrival="257.00" arrivalLane="128643746#1_0" arrivalPos="15.76" arrivalPosLat="-1.27" arrivalSpeed="0.08" duration="243.00" routeLength="1138.02" waitingTime="7.00" waitingCount="2" stopTime="0.00" timeLoss="37.89" rerouteNo="1" devices="tripinfo_pf_0.5_b0 person_pf_0.5_b0" vType="DEFAULT_BIKETYPE" speedFactor="1.01" vaporized=""/>
    <tripinfo id="pf_0.7_b0" depart="19.00" departLane="152839448#0_0" departPos="1.70" departPosLat="0.00" departSpeed="0.00" departDelay="4.00" arrival="263.00" arrivalLane="128643746#1_0" arrivalPos="15.76" arrivalPosLat="-1.27" arrivalSpeed="0.12" duration="244.00" routeLength="1138.02" waitingTime="1.00" waitingCount="1" stopTime="0.00" timeLoss="32.01" rerouteNo="1" devices="tripinfo_pf_0.7_b0 person_pf_0.7_b0" vType="DEFAULT_BIKETYPE" speedFactor="0.98" vaporized=""/>
    <tripinfo id="pf_0.2_b0" depart="7.00" departLane="152839448#0_0" departPos="1.70" departPosLat="0.00" departSpeed="0.00" departDelay="4.00" arrival="265.00" arrivalLane="128643746#1_0" arrivalPos="15.76" arrivalPosLat="-0.87" arrivalSpeed="0.10" duration="258.00" routeLength="1138.02" waitingTime="7.00" waitingCount="2" stopTime="0.00" timeLoss="47.67" rerouteNo="1" devices="tripinfo_pf_0.2_b0 person_pf_0.2_b0" vType="DEFAULT_BIKETYPE" speedFactor="0.99" vaporized=""/>
    <tripinfo id="pf_0.6_b0" depart="17.00" departLane="152839448#0_0" departPos="1.70" departPosLat="0.00" departSpeed="0.00" departDelay="4.00" arrival="265.00" arrivalLane="128643746#1_0" arrivalPos="15.76" arrivalPosLat="1.27" arrivalSpeed="0.52" duration="248.00" routeLength="1138.02" waitingTime="3.00" waitingCount="1" stopTime="0.00" timeLoss="30.43" rerouteNo="1" devices="tripinfo_pf_0.6_b0 person_pf_0.6_b0" vType="DEFAULT_BIKETYPE" speedFactor="0.95" vaporized=""/>
    <tripinfo id="pf_0.0_b0" depart="2.00" departLane="152839448#0_0" departPos="1.70" departPosLat="0.00" departSpeed="0.00" departDelay="0.00" arrival="271.00" arrivalLane="128643746#1_0" arrivalPos="15.76" arrivalPosLat="0.13" arrivalSpeed="0.24" duration="269.00" routeLength="1138.02" waitingTime="5.00" waitingCount="3" stopTime="0.00" timeLoss="37.54" rerouteNo="1" devices="tripinfo_pf_0.0_b0 person_pf_0.0_b0" vType="DEFAULT_BIKETYPE" speedFactor="0.90" vaporized=""/>
    <tripinfo id="pf_0.3_b0" depart="9.00" departLane="152839448#0_0" departPos="1.70" departPosLat="0.00" departSpeed="0.00" departDelay="4.00" arrival="272.00" arrivalLane="128643746#1_0" arrivalPos="15.76" arrivalPosLat="-1.27" arrivalSpeed="0.19" duration="263.00" routeLength="1138.02" waitingTime="2.00" waitingCount="1" stopTime="0.00" timeLoss="35.85" rerouteNo="1" devices="tripinfo_pf_0.3_b0 person_pf_0.3_b0" vType="DEFAULT_BIKETYPE" speedFactor="0.91" vaporized=""/>
    <tripinfo id="pf_0.4_b0" depart="12.00" departLane="152839448#0_0" departPos="1.70" departPosLat="0.00" departSpeed="0.00" departDelay="1.00" arrival="295.00" arrivalLane="128643746#1_0" arrivalPos="15.76" arrivalPosLat="-1.27" arrivalSpeed="0.16" duration="283.00" routeLength="1138.02" waitingTime="18.00" waitingCount="1" stopTime="0.00" timeLoss="53.10" rerouteNo="1" devices="tripinfo_pf_0.4_b0 person_pf_0.4_b0" vType="DEFAULT_BIKETYPE" speedFactor="0.90" vaporized=""/>
    <tripinfo id="pf_0.15_b0" depart="39.00" departLane="152839448#0_0" departPos="1.70" departPosLat="0.00" departSpeed="0.00" departDelay="13.00" arrival="303.00" arrivalLane="128643746#1_0" arrivalPos="15.76" arrivalPosLat="-1.27" arrivalSpeed="0.40" duration="264.00" routeLength="1138.02" waitingTime="36.00" waitingCount="4" stopTime="0.00" timeLoss="95.27" rerouteNo="1" devices="tripinfo_pf_0.15_b0 person_pf_0.15_b0" vType="DEFAULT_BIKETYPE" speedFactor="1.23" vaporized=""/>
    <tripinfo id="pf_0.11_b0" depart="30.00" departLane="152839448#0_0" departPos="1.70" departPosLat="0.00" departSpeed="0.00" departDelay="10.00" arrival="311.00" arrivalLane="128643746#1_0" arrivalPos="15.76" arrivalPosLat="-1.27" arrivalSpeed="0.32" duration="281.00" routeLength="1138.02" waitingTime="58.00" waitingCount="4" stopTime="0.00" timeLoss="93.94" rerouteNo="1" devices="tripinfo_pf_0.11_b0 person_pf_0.11_b0" vType="DEFAULT_BIKETYPE" speedFactor="1.11" vaporized=""/>
    <tripinfo id="pf_0.10_b0" depart="27.00" departLane="152839448#0_0" departPos="1.70" departPosLat="0.00" departSpeed="0.00" departDelay="9.00" arrival="314.00" arrivalLane="128643746#1_0" arrivalPos="15.76" arrivalPosLat="-1.27" arrivalSpeed="0.14" duration="287.00" routeLength="1138.02" waitingTime="61.00" waitingCount="5" stopTime="0.00" timeLoss="95.40" rerouteNo="1" devices="tripinfo_pf_0.10_b0 person_pf_0.10_b0" vType="DEFAULT_BIKETYPE" speedFactor="1.09" vaporized=""/>
    <tripinfo id="pf_0.17_b0" depart="44.00" departLane="152839448#0_0" departPos="1.70" departPosLat="0.00" departSpeed="0.00" departDelay="8.00" arrival="316.00" arrivalLane="128643746#1_0" arrivalPos="15.76" arrivalPosLat="-1.27" arrivalSpeed="0.25" duration="272.00" routeLength="1138.02" waitingTime="34.00" waitingCount="1" stopTime="0.00" timeLoss="78.66" rerouteNo="1" devices="tripinfo_pf_0.17_b0 person_pf_0.17_b0" vType="DEFAULT_BIKETYPE" speedFactor="1.07" vaporized=""/>
    <tripinfo id="pf_0.14_b0" depart="37.00" departLane="152839448#0_0" departPos="1.70" departPosLat="0.00" departSpeed="0.00" departDelay="13.00" arrival="321.00" arrivalLane="128643746#1_0" arrivalPos="15.76" arrivalPosLat="-1.27" arrivalSpeed="0.13" duration="284.00" routeLength="1138.02" waitingTime="37.00" waitingCount="3" stopTime="0.00" timeLoss="84.76" rerouteNo="1" devices="tripinfo_pf_0.14_b0 person_pf_0.14_b0" vType="DEFAULT_BIKETYPE" speedFactor="1.04" vaporized=""/>
    <tripinfo id="pf_0.28_b0" depart="72.00" departLane="152839448#0_0" departPos="1.70" departPosLat="0.00" departSpeed="0.00" departDelay="17.00" arrival="323.00" arrivalLane="128643746#1_0" arrivalPos="15.76" arrivalPosLat="0.27" arrivalSpeed="0.48" duration="251.00" routeLength="1138.02" waitingTime="6.00" waitingCount="3" stopTime="0.00" timeLoss="86.68" rerouteNo="1" devices="tripinfo_pf_0.28_b0 person_pf_0.28_b0" vType="DEFAULT_BIKETYPE" speedFactor="1.26" vaporized=""/>
    <tripinfo id="pf_0.13_b0" depart="35.00" departLane="152839448#0_0" departPos="1.70" departPosLat="0.00" departSpeed="0.00" departDelay="12.00" arrival="325.00" arrivalLane="128643746#1_0" arrivalPos="15.76" arrivalPosLat="-1.27" arrivalSpeed="0.38" duration="290.00" routeLength="1138.02" waitingTime="46.00" waitingCount="5" stopTime="0.00" timeLoss="98.78" rerouteNo="1" devices="tripinfo_pf_0.13_b0 person_pf_0.13_b0" vType="DEFAULT_BIKETYPE" speedFactor="1.09" vaporized=""/>
    <tripinfo id="pf_0.16_b0" depart="42.00" departLane="152839448#0_0" departPos="1.70" departPosLat="0.00" departSpeed="0.00" departDelay="14.00" arrival="327.00" arrivalLane="128643746#1_0" arrivalPos="15.76" arrivalPosLat="-1.27" arrivalSpeed="0.26" duration="285.00" routeLength="1138.02" waitingTime="44.00" waitingCount="3" stopTime="0.00" timeLoss="74.68" rerouteNo="1" devices="tripinfo_pf_0.16_b0 person_pf_0.16_b0" vType="DEFAULT_BIKETYPE" speedFactor="0.99" vaporized=""/>
    <tripinfo id="pf_0.34_b0" depart="87.00" departLane="152839448#0_0" departPos="1.70" departPosLat="0.00" departSpeed="0.00" departDelay="19.00" arrival="329.00" arrivalLane="128643746#1_0" arrivalPos="15.76" arrivalPosLat="1.13" arrivalSpeed="0.10" duration="242.00" routeLength="1138.02" waitingTime="3.00" waitingCount="3" stopTime="0.00" timeLoss="81.42" rerouteNo="1" devices="tripinfo_pf_0.34_b0 person_pf_0.34_b0" vType="DEFAULT_BIKETYPE" speedFactor="1.29" vaporized=""/>
    <tripinfo id="pf_0.12_b0" depart="33.00" departLane="152839448#0_0" departPos="1.70" departPosLat="0.00" departSpeed="0.00" departDelay="11.00" arrival="331.00" arrivalLane="128643746#1_0" arrivalPos="15.76" arrivalPosLat="-1.27" arrivalSpeed="0.09" duration="298.00" routeLength="1138.02" waitingTime="43.00" waitingCount="5" stopTime="0.00" timeLoss="100.45" rerouteNo="1" devices="tripinfo_pf_0.12_b0 person_pf_0.12_b0" vType="DEFAULT_BIKETYPE" speedFactor="1.05" vaporized=""/>
    <tripinfo id="pf_0.24_b0" depart="62.00" departLane="152839448#0_0" departPos="1.70" departPosLat="0.00" departSpeed="0.00" departDelay="13.00" arrival="332.00" arrivalLane="128643746#1_0" arrivalPos="15.76" arrivalPosLat="-0.47" arrivalSpeed="0.09" duration="270.00" routeLength="1138.02" waitingTime="8.00" waitingCount="4" stopTime="0.00" timeLoss="65.69" rerouteNo="1" devices="tripinfo_pf_0.24_b0 person_pf_0.24_b0" vType="DEFAULT_BIKETYPE" speedFactor="1.02" vaporized=""/>
    <tripinfo id="pf_0.23_b0" depart="59.00" departLane="152839448#0_0" departPos="1.70" departPosLat="0.00" departSpeed="0.00" departDelay="13.00" arrival="334.00" arrivalLane="128643746#1_0" arrivalPos="15.76" arrivalPosLat="-0.07" arrivalSpeed="0.09" duration="275.00" routeLength="1138.02" waitingTime="10.00" waitingCount="3" stopTime="0.00" timeLoss="57.89" rerouteNo="1" devices="tripinfo_pf_0.23_b0 person_pf_0.23_b0" vType="DEFAULT_BIKETYPE" speedFactor="0.96" vaporized=""/>
    <tripinfo id="pf_0.22_b0" depart="57.00" departLane="152839448#0_0" departPos="1.70" departPosLat="0.00" departSpeed="0.00" departDelay="12.00" arrival="335.00" arrivalLane="128643746#1_0" arrivalPos="15.76" arrivalPosLat="1.27" arrivalSpeed="0.17" duration="278.00" routeLength="1138.02" waitingTime="12.00" waitingCount="4" stopTime="0.00" timeLoss="73.99" rerouteNo="1" devices="tripinfo_pf_0.22_b0 person_pf_0.22_b0" vType="DEFAULT_BIKETYPE" speedFactor="1.02" vaporized=""/>
    <tripinfo id="pf_0.29_b0" depart="74.00" departLane="152839448#0_0" departPos="1.70" departPosLat="0.00" departSpeed="0.00" departDelay="13.00" arrival="336.00" arrivalLane="128643746#1_0" arrivalPos="15.76" arrivalPosLat="-1.27" arrivalSpeed="0.07" duration="262.00" routeLength="1138.02" waitingTime="7.00" waitingCount="4" stopTime="0.00" timeLoss="59.08" rerouteNo="1" devices="tripinfo_pf_0.29_b0 person_pf_0.29_b0" vType="DEFAULT_BIKETYPE" speedFactor="1.02" vaporized=""/>
    <tripinfo id="pf_0.9_b0" depart="25.00" departLane="152839448#0_0" departPos="1.70" departPosLat="0.00" departSpeed="0.00" departDelay="9.00" arrival="340.00" arrivalLane="128643746#1_0" arrivalPos="15.76" arrivalPosLat="-1.27" arrivalSpeed="0.22" duration="315.00" routeLength="1138.02" waitingTime="46.00" waitingCount="4" stopTime="0.00" timeLoss="87.01" rerouteNo="1" devices="tripinfo_pf_0.9_b0 person_pf_0.9_b0" vType="DEFAULT_BIKETYPE" speedFactor="0.91" vaporized=""/>
    <tripinfo id="pf_0.27_b0" depart="69.00" departLane="152839448#0_0" departPos="1.70" departPosLat="0.00" departSpeed="0.00" departDelay="16.00" arrival="340.00" arrivalLane="128643746#1_0" arrivalPos="15.76" arrivalPosLat="1.13" arrivalSpeed="0.11" duration="271.00" routeLength="1138.02" waitingTime="4.00" waitingCount="2" stopTime="0.00" timeLoss="57.64" rerouteNo="1" devices="tripinfo_pf_0.27_b0 person_pf_0.27_b0" vType="DEFAULT_BIKETYPE" speedFactor="0.97" vaporized=""/>
    <tripinfo id="pf_0.21_b0" depart="55.00" departLane="152839448#0_0" departPos="1.70" departPosLat="0.00" departSpeed="0.00" departDelay="12.00" arrival="342.00" arrivalLane="128643746#1_0" arrivalPos="15.76" arrivalPosLat="1.27" arrivalSpeed="0.15" duration="287.00" routeLength="1138.02" waitingTime="16.00" waitingCount="2" stopTime="0.00" timeLoss="72.02" rerouteNo="1" devices="tripinfo_pf_0.21_b0 person_pf_0.21_b0" vType="DEFAULT_BIKETYPE" speedFactor="0.97" vaporized=""/>
    <tripinfo id="pf_0.20_b0" depart="52.00" departLane="152839448#0_0" departPos="1.70" departPosLat="0.00" departSpeed="0.00" departDelay="9.00" arrival="344.00" arrivalLane="128643746#1_0" arrivalPos="15.76" arrivalPosLat="-1.27" arrivalSpeed="0.07" duration="292.00" routeLength="1138.02" waitingTime="25.00" waitingCount="6" stopTime="0.00" timeLoss="79.81" rerouteNo="1" devices="tripinfo_pf_0.20_b0 person_pf_0.20_b0" vType="DEFAULT_BIKETYPE" speedFactor="0.98" vaporized=""/>
    <tripinfo id="pf_0.36_b0" depart="92.00" departLane="152839448#0_0" departPos="1.70" departPosLat="0.00" departSpeed="0.00" departDelay="21.00" arrival="344.00" arrivalLane="128643746#1_0" arrivalPos="15.76" arrivalPosLat="1.27" arrivalSpeed="0.17" duration="252.00" routeLength="1138.02" waitingTime="21.00" waitingCount="3" stopTime="0.00" timeLoss="55.00" rerouteNo="1" devices="tripinfo_pf_0.36_b0 person_pf_0.36_b0" vType="DEFAULT_BIKETYPE" speedFactor="1.06" vaporized=""/>
    <tripinfo id="pf_0.26_b0" depart="67.00" departLane="152839448#0_0" departPos="1.70" departPosLat="0.00" departSpeed="0.00" departDelay="14.00" arrival="346.00" arrivalLane="128643746#1_0" arrivalPos="15.76" arrivalPosLat="0.00" arrivalSpeed="0.09" duration="279.00" routeLength="1138.02" waitingTime="5.00" waitingCount="3" stopTime="0.00" timeLoss="75.70" rerouteNo="1" devices="tripinfo_pf_0.26_b0 person_pf_0.26_b0" vType="DEFAULT_BIKETYPE" speedFactor="1.02" vaporized=""/>
    <tripinfo id="pf_0.43_b0" depart="110.00" departLane="152839448#0_0" departPos="1.70" departPosLat="0.00" departSpeed="0.00" departDelay="29.00" arrival="346.00" arrivalLane="128643746#1_0" arrivalPos="15.76" arrivalPosLat="1.27" arrivalSpeed="0.48" duration="236.00" routeLength="1138.02" waitingTime="2.00" waitingCount="2" stopTime="0.00" timeLoss="58.05" rerouteNo="1" devices="tripinfo_pf_0.43_b0 person_pf_0.43_b0" vType="DEFAULT_BIKETYPE" speedFactor="1.17" vaporized=""/>
    <tripinfo id="pf_0.19_b0" depart="50.00" departLane="152839448#0_0" departPos="1.70" departPosLat="0.00" departSpeed="0.00" departDelay="12.00" arrival="348.00" arrivalLane="128643746#1_0" arrivalPos="15.76" arrivalPosLat="-1.27" arrivalSpeed="0.10" duration="298.00" routeLength="1138.02" waitingTime="25.00" waitingCount="5" stopTime="0.00" timeLoss="78.44" rerouteNo="1" devices="tripinfo_pf_0.19_b0 person_pf_0.19_b0" vType="DEFAULT_BIKETYPE" speedFactor="0.95" vaporized=""/>
    <tripinfo id="pf_0.39_b0" depart="100.00" departLane="152839448#0_0" departPos="1.70" departPosLat="0.00" departSpeed="0.00" departDelay="26.00" arrival="350.00" arrivalLane="128643746#1_0" arrivalPos="15.76" arrivalPosLat="1.13" arrivalSpeed="0.22" duration="250.00" routeLength="1138.02" waitingTime="9.00" waitingCount="3" stopTime="0.00" timeLoss="47.21" rerouteNo="1" devices="tripinfo_pf_0.39_b0 person_pf_0.39_b0" vType="DEFAULT_BIKETYPE" speedFactor="1.02" vaporized=""/>
    <tripinfo id="pf_0.18_b0" depart="47.00" departLane="152839448#0_0" departPos="1.70" departPosLat="0.00" departSpeed="0.00" departDelay="11.00" arrival="351.00" arrivalLane="128643746#1_0" arrivalPos="15.76" arrivalPosLat="-1.27" arrivalSpeed="0.46" duration="304.00" routeLength="1138.02" waitingTime="22.00" waitingCount="3" stopTime="0.00" timeLoss="76.25" rerouteNo="1" devices="tripinfo_pf_0.18_b0 person_pf_0.18_b0" vType="DEFAULT_BIKETYPE" speedFactor="0.91" vaporized=""/>
    <tripinfo id="pf_0.32_b0" depart="82.00" departLane="152839448#0_0" departPos="1.70" departPosLat="0.00" departSpeed="0.00" departDelay="16.00" arrival="353.00" arrivalLane="128643746#1_0" arrivalPos="15.76" arrivalPosLat="1.27" arrivalSpeed="0.15" duration="271.00" routeLength="1138.02" waitingTime="0.00" waitingCount="0" stopTime="0.00" timeLoss="57.47" rerouteNo="1" devices="tripinfo_pf_0.32_b0 person_pf_0.32_b0" vType="DEFAULT_BIKETYPE" speedFactor="0.97" vaporized=""/>
    <tripinfo id="pf_0.33_b0" depart="85.00" departLane="152839448#0_0" departPos="1.70" departPosLat="0.00" departSpeed="0.00" departDelay="17.00" arrival="354.00" arrivalLane="128643746#1_0" arrivalPos="15.76" arrivalPosLat="-1.27" arrivalSpeed="0.12" duration="269.00" routeLength="1138.02" waitingTime="1.00" waitingCount="1" stopTime="0.00" timeLoss="43.30" rerouteNo="1" devices="tripinfo_pf_0.33_b0 person_pf_0.33_b0" vType="DEFAULT_BIKETYPE" speedFactor="0.92" vaporized=""/>
    <tripinfo id="pf_0.31_b0" depart="79.00" departLane="152839448#0_0" departPos="1.70" departPosLat="0.00" departSpeed="0.00" departDelay="15.00" arrival="363.00" arrivalLane="128643746#1_0" arrivalPos="15.76" arrivalPosLat="1.27" arrivalSpeed="0.11" duration="284.00" routeLength="1138.02" waitingTime="3.00" waitingCount="1" stopTime="0.00" timeLoss="56.39" rerouteNo="1" devices="tripinfo_pf_0.31_b0 person_pf_0.31_b0" vType="DEFAULT_BIKETYPE" speedFactor="0.91" vaporized=""/>
    <tripinfo id="pf_0.30_b0" depart="77.00" departLane="152839448#0_0" departPos="1.70" departPosLat="0.00" departSpeed="0.00" departDelay="13.00" arrival="364.00" arrivalLane="128643746#1_0" arrivalPos="15.76" arrivalPosLat="-1.27" arrivalSpeed="0.09" duration="287.00" routeLength="1138.02" waitingTime="1.00" waitingCount="1" stopTime="0.00" timeLoss="41.27" rerouteNo="1" devices="tripinfo_pf_0.30_b0 person_pf_0.30_b0" vType="DEFAULT_BIKETYPE" speedFactor="0.85" vaporized=""/>
    <tripinfo id="pf_0.42_b0" depart="107.00" departLane="152839448#0_0" departPos="1.70" departPosLat="0.00" departSpeed="0.00" departDelay="26.00" arrival="366.00" arrivalLane="128643746#1_0" arrivalPos="15.76" arrivalPosLat="0.13" arrivalSpeed="0.16" duration="259.00" routeLength="1138.02" waitingTime="11.00" waitingCount="2" stopTime="0.00" timeLoss="56.28" rerouteNo="1" devices="tripinfo_pf_0.42_b0 person_pf_0.42_b0" vType="DEFAULT_BIKETYPE" speedFactor="1.02" vaporized=""/>
    <tripinfo id="pf_0.25_b0" depart="64.00" departLane="152839448#0_0" departPos="1.70" departPosLat="0.00" departSpeed="0.00" departDelay="12.00" arrival="367.00" arrivalLane="128643746#1_0" arrivalPos="15.76" arrivalPosLat="-1.27" arrivalSpeed="0.13" duration="303.00" routeLength="1138.02" waitingTime="2.00" waitingCount="1" stopTime="0.00" timeLoss="60.69" rerouteNo="1" devices="tripinfo_pf_0.25_b0 person_pf_0.25_b0" vType="DEFAULT_BIKETYPE" speedFactor="0.86" vaporized=""/>
    <tripinfo id="pf_0.38_b0" depart="97.00" departLane="152839448#0_0" departPos="1.70" departPosLat="0.00" departSpeed="0.00" departDelay="24.00" arrival="374.00" arrivalLane="128643746#1_0" arrivalPos="15.76" arrivalPosLat="-1.27" arrivalSpeed="0.22" duration="277.00" routeLength="1138.02" waitingTime="17.00" waitingCount="3" stopTime="0.00" timeLoss="56.89" rerouteNo="1" devices="tripinfo_pf_0.38_b0 person_pf_0.38_b0" vType="DEFAULT_BIKETYPE" speedFactor="0.94" vaporized=""/>
    <tripinfo id="pf_0.35_b0" depart="89.00" departLane="152839448#0_0" departPos="1.70" departPosLat="0.00" departSpeed="0.00" departDelay="20.00" arrival="376.00" arrivalLane="128643746#1_0" arrivalPos="15.76" arrivalPosLat="-1.27" arrivalSpeed="0.79" duration="287.00" routeLength="1138.02" waitingTime="16.00" waitingCount="3" stopTime="0.00" timeLoss="59.01" rerouteNo="1" devices="tripinfo_pf_0.35_b0 person_pf_0.35_b0" vType="DEFAULT_BIKETYPE" speedFactor="0.91" vaporized=""/>
    <tripinfo id="pf_0.41_b0" depart="105.00" departLane="152839448#0_0" departPos="1.70" departPosLat="0.00" departSpeed="0.00" departDelay="25.00" arrival="378.00" arrivalLane="128643746#1_0" arrivalPos="15.76" arrivalPosLat="-1.27" arrivalSpeed="0.26" duration="273.00" routeLength="1138.02" waitingTime="5.00" waitingCount="2" stopTime="0.00" timeLoss="49.29" rerouteNo="1" devices="tripinfo_pf_0.41_b0 person_pf_0.41_b0" vType="DEFAULT_BIKETYPE" speedFactor="0.93" vaporized=""/>
    <tripinfo id="pf_0.40_b0" depart="102.00" departLane="152839448#0_0" departPos="1.70" departPosLat="0.00" departSpeed="0.00" departDelay="22.00" arrival="383.00" arrivalLane="128643746#1_0" arrivalPos="15.76" arrivalPosLat="-1.27" arrivalSpeed="0.09" duration="281.00" routeLength="1138.02" waitingTime="16.00" waitingCount="4" stopTime="0.00" timeLoss="57.15" rerouteNo="1" devices="tripinfo_pf_0.40_b0 person_pf_0.40_b0" vType="DEFAULT_BIKETYPE" speedFactor="0.93" vaporized=""/>
    <tripinfo id="pf_0.37_b0" depart="94.00" departLane="152839448#0_0" departPos="1.70" departPosLat="0.00" departSpeed="0.00" departDelay="22.00" arrival="385.00" arrivalLane="128643746#1_0" arrivalPos="15.76" arrivalPosLat="-1.27" arrivalSpeed="0.09" duration="291.00" routeLength="1138.02" waitingTime="13.00" waitingCount="5" stopTime="0.00" timeLoss="57.93" rerouteNo="1" devices="tripinfo_pf_0.37_b0 person_pf_0.37_b0" vType="DEFAULT_BIKETYPE" speedFactor="0.89" vaporized=""/>
    <tripinfo id="pf_0.48_b0" depart="122.00" departLane="152839448#0_0" departPos="1.70" departPosLat="0.00" departSpeed="0.00" departDelay="23.00" arrival="388.00" arrivalLane="128643746#1_0" arrivalPos="15.76" arrivalPosLat="-1.27" arrivalSpeed="0.28" duration="266.00" routeLength="1138.02" waitingTime="45.00" waitingCount="2" stopTime="0.00" timeLoss="91.76" rerouteNo="1" devices="tripinfo_pf_0.48_b0 person_pf_0.48_b0" vType="DEFAULT_BIKETYPE" speedFactor="1.19" vaporized=""/>
    <tripinfo id="pf_0.46_b0" depart="117.00" departLane="152839448#0_0" departPos="1.70" departPosLat="0.00" departSpeed="0.00" departDelay="23.00" arrival="390.00" arrivalLane="128643746#1_0" arrivalPos="15.76" arrivalPosLat="-1.27" arrivalSpeed="0.13" duration="273.00" routeLength="1138.02" waitingTime="50.00" waitingCount="3" stopTime="0.00" timeLoss="88.33" rerouteNo="1" devices="tripinfo_pf_0.46_b0 person_pf_0.46_b0" vType="DEFAULT_BIKETYPE" speedFactor="1.12" vaporized=""/>
    <tripinfo id="pf_0.51_b0" depart="129.00" departLane="152839448#0_0" departPos="1.70" departPosLat="0.00" departSpeed="0.00" departDelay="24.00" arrival="396.00" arrivalLane="128643746#1_0" arrivalPos="15.76" arrivalPosLat="-1.27" arrivalSpeed="1.46" duration="267.00" routeLength="1138.02" waitingTime="40.00" waitingCount="2" stopTime="0.00" timeLoss="72.26" rerouteNo="1" devices="tripinfo_pf_0.51_b0 person_pf_0.51_b0" vType="DEFAULT_BIKETYPE" speedFactor="1.07" vaporized=""/>
    <tripinfo id="pf_0.62_b0" depart="157.00" departLane="152839448#0_0" departPos="1.70" departPosLat="0.00" departSpeed="0.00" departDelay="38.00" arrival="399.00" arrivalLane="128643746#1_0" arrivalPos="15.76" arrivalPosLat="-1.27" arrivalSpeed="2.60" duration="242.00" routeLength="1138.02" waitingTime="22.00" waitingCount="1" stopTime="0.00" timeLoss="54.45" rerouteNo="1" devices="tripinfo_pf_0.62_b0 person_pf_0.62_b0" vType="DEFAULT_BIKETYPE" speedFactor="1.11" vaporized=""/>
    <tripinfo id="pf_0.49_b0" depart="124.00" departLane="152839448#0_0" departPos="1.70" departPosLat="0.00" departSpeed="0.00" departDelay="22.00" arrival="400.00" arrivalLane="128643746#1_0" arrivalPos="15.76" arrivalPosLat="-1.27" arrivalSpeed="0.08" duration="276.00" routeLength="1138.02" waitingTime="44.00" waitingCount="3" stopTime="0.00" timeLoss="80.66" rerouteNo="1" devices="tripinfo_pf_0.49_b0 person_pf_0.49_b0" vType="DEFAULT_BIKETYPE" speedFactor="1.06" vaporized=""/>
    <tripinfo id="pf_0.65_b0" depart="165.00" departLane="152839448#0_0" departPos="1.70" departPosLat="0.00" departSpeed="0.00" departDelay="41.00" arrival="409.00" arrivalLane="128643746#1_0" arrivalPos="15.76" arrivalPosLat="-1.27" arrivalSpeed="0.36" duration="244.00" routeLength="1138.02" waitingTime="23.00" waitingCount="1" stopTime="0.00" timeLoss="76.35" rerouteNo="1" devices="tripinfo_pf_0.65_b0 person_pf_0.65_b0" vType="DEFAULT_BIKETYPE" speedFactor="1.24" vaporized=""/>
    <tripinfo id="pf_0.66_b0" depart="167.00" departLane="152839448#0_0" departPos="1.70" departPosLat="0.00" departSpeed="0.00" departDelay="38.00" arrival="412.00" arrivalLane="128643746#1_0" arrivalPos="15.76" arrivalPosLat="1.27" arrivalSpeed="2.27" duration="245.00" routeLength="1138.02" waitingTime="18.00" waitingCount="3" stopTime="0.00" timeLoss="60.73" rerouteNo="1" devices="tripinfo_pf_0.66_b0 person_pf_0.66_b0" vType="DEFAULT_BIKETYPE" speedFactor="1.13" vaporized=""/>
    <tripinfo id="pf_0.45_b0" depart="114.00" departLane="152839448#0_0" departPos="1.70" departPosLat="0.00" departSpeed="0.00" departDelay="24.00" arrival="414.00" arrivalLane="128643746#1_0" arrivalPos="15.76" arrivalPosLat="-1.27" arrivalSpeed="0.15" duration="300.00" routeLength="1138.02" waitingTime="50.00" waitingCount="2" stopTime="0.00" timeLoss="77.02" rerouteNo="1" devices="tripinfo_pf_0.45_b0 person_pf_0.45_b0" vType="DEFAULT_BIKETYPE" speedFactor="0.93" vaporized=""/>
    <tripinfo id="pf_0.54_b0" depart="137.00" departLane="152839448#0_0" departPos="1.70" departPosLat="0.00" departSpeed="0.00" departDelay="31.00" arrival="416.00" arrivalLane="128643746#1_0" arrivalPos="15.76" arrivalPosLat="-1.27" arrivalSpeed="0.09" duration="279.00" routeLength="1138.02" waitingTime="28.00" waitingCount="2" stopTime="0.00" timeLoss="63.74" rerouteNo="1" devices="tripinfo_pf_0.54_b0 person_pf_0.54_b0" vType="DEFAULT_BIKETYPE" speedFactor="0.96" vaporized=""/>
    <tripinfo id="pf_0.58_b0" depart="148.00" departLane="152839448#0_0" departPos="1.70" departPosLat="0.00" departSpeed="0.00" departDelay="35.00" arrival="418.00" arrivalLane="128643746#1_0" arrivalPos="15.76" arrivalPosLat="-1.27" arrivalSpeed="0.89" duration="270.00" routeLength="1138.02" waitingTime="27.00" waitingCount="2" stopTime="0.00" timeLoss="63.05" rerouteNo="1" devices="tripinfo_pf_0.58_b0 person_pf_0.58_b0" vType="DEFAULT_BIKETYPE" speedFactor="1.00" vaporized=""/>
    <tripinfo id="pf_0.73_b0" depart="183.00" departLane="152839448#0_0" departPos="1.70" departPosLat="0.00" departSpeed="0.00" departDelay="40.00" arrival="418.00" arrivalLane="128643746#1_0" arrivalPos="15.76" arrivalPosLat="1.27" arrivalSpeed="0.20" duration="235.00" routeLength="1138.02" waitingTime="16.00" waitingCount="3" stopTime="0.00" timeLoss="56.11" rerouteNo="1" devices="tripinfo_pf_0.73_b0 person_pf_0.73_b0" vType="DEFAULT_BIKETYPE" speedFactor="1.16" vaporized=""/>
    <tripinfo id="pf_0.63_b0" depart="160.00" departLane="152839448#0_0" departPos="1.70" departPosLat="0.00" departSpeed="0.00" departDelay="38.00" arrival="419.00" arrivalLane="128643746#1_0" arrivalPos="15.76" arrivalPosLat="0.00" arrivalSpeed="0.06" duration="259.00" routeLength="1138.02" waitingTime="25.00" waitingCount="3" stopTime="0.00" timeLoss="67.61" rerouteNo="1" devices="tripinfo_pf_0.63_b0 person_pf_0.63_b0" vType="DEFAULT_BIKETYPE" speedFactor="1.09" vaporized=""/>
    <tripinfo id="pf_0.61_b0" depart="155.00" departLane="152839448#0_0" departPos="1.70" departPosLat="0.00" departSpeed="0.00" departDelay="36.00" arrival="421.00" arrivalLane="128643746#1_0" arrivalPos="15.76" arrivalPosLat="-1.27" arrivalSpeed="0.20" duration="266.00" routeLength="1138.02" waitingTime="20.00" waitingCount="2" stopTime="0.00" timeLoss="59.21" rerouteNo="1" devices="tripinfo_pf_0.61_b0 person_pf_0.61_b0" vType="DEFAULT_BIKETYPE" speedFactor="1.00" vaporized=""/>
    <tripinfo id="pf_0.72_b0" depart="181.00" departLane="152839448#0_0" departPos="1.70" departPosLat="0.00" departSpeed="0.00" departDelay="39.00" arrival="421.00" arrivalLane="128643746#1_0" arrivalPos="15.76" arrivalPosLat="1.13" arrivalSpeed="0.52" duration="240.00" routeLength="1138.02" waitingTime="16.00" waitingCount="3" stopTime="0.00" timeLoss="54.17" rerouteNo="1" devices="tripinfo_pf_0.72_b0 person_pf_0.72_b0" vType="DEFAULT_BIKETYPE" speedFactor="1.12" vaporized=""/>