<?xml version="1.0" encoding="UTF-8"?>

<!-- generated on 10.05.2019 09:05:37 by Eclipse SUMO GUI Version v1_2_0+0280-89bb845180c
<configuration xmlns:xsi="http://www.w3.org/2001/XMLSchema-instance" xsi:noNamespaceSchemaLocation="http://sumo.dlr.de/xsd/sumoConfiguration.xsd">

    <input>
        <net-file value="D:\erdm_ja\sip-svn-trunk\papers\DLR\SUMO_Conference2019\tutorial\4_demand.final\osm.net.xml"/>
        <route-files value="D:\erdm_ja\sip-svn-trunk\papers\DLR\SUMO_Conference2019\tutorial\4_demand.final\osm_pt.rou.xml,D:\erdm_ja\sip-svn-trunk\papers\DLR\SUMO_Conference2019\tutorial\4_demand.final\osm.passenger.trips.xml,D:\erdm_ja\sip-svn-trunk\papers\DLR\SUMO_Conference2019\tutorial\4_demand.final\osm.pedestrian.rou.xml,D:\erdm_ja\sip-svn-trunk\papers\DLR\SUMO_Conference2019\tutorial\4_demand.final\custom.rou.xml,D:\erdm_ja\sip-svn-trunk\papers\DLR\SUMO_Conference2019\tutorial\4_demand.final\personflow.rou.xml"/>
        <additional-files value="D:\erdm_ja\sip-svn-trunk\papers\DLR\SUMO_Conference2019\tutorial\4_demand.final\osm.poly.xml,D:\erdm_ja\sip-svn-trunk\papers\DLR\SUMO_Conference2019\tutorial\4_demand.final\osm_stops.add.xml,D:\erdm_ja\sip-svn-trunk\papers\DLR\SUMO_Conference2019\tutorial\4_demand.final\edgedata.add.xml"/>
    </input>

    <processing>
        <ignore-route-errors value="true"/>
    </processing>

    <routing>
        <device.rerouting.adaptation-steps value="180"/>
    </routing>

    <report>
        <verbose value="true"/>
        <duration-log.statistics value="true"/>
        <no-step-log value="true"/>
    </report>

    <gui_only>
        <gui-settings-file value="D:\erdm_ja\sip-svn-trunk\papers\DLR\SUMO_Conference2019\tutorial\4_demand.final\osm.view.xml"/>
    </gui_only>

</configuration>
-->

<meandata xmlns:xsi="http://www.w3.org/2001/XMLSchema-instance" xsi:noNamespaceSchemaLocation="http://sumo.dlr.de/xsd/meandata_file.xsd">
    <interval begin="0.00" end="6069.00" id="pedData">
        <edge id="-114024899" sampledSeconds="4.00" traveltime="1.00" overlapTraveltime="1.09" density="0.29" occupancy="0.00" waitingTime="0.00" speed="2.27" departed="2" arrived="2" entered="2" left="2" laneChangedFrom="0" laneChangedTo="0"/>
        <edge id="-114024901" sampledSeconds="374.00" traveltime="74.80" overlapTraveltime="74.92" density="0.45" occupancy="0.00" waitingTime="0.00" speed="1.83" departed="2" arrived="3" entered="3" left="2" laneChangedFrom="0" laneChangedTo="0"/>
        <edge id="-114024903#0" sampledSeconds="15.00" traveltime="1.00" overlapTraveltime="2.07" density="12.36" occupancy="0.00" waitingTime="0.00" speed="0.20" departed="1" arrived="0" entered="14" left="15" laneChangedFrom="0" laneChangedTo="0"/>
        <edge id="-114024903#1" sampledSeconds="246.00" traveltime="14.47" overlapTraveltime="14.63" density="2.03" occupancy="0.00" waitingTime="0.00" speed="1.38" departed="1" arrived="1" entered="16" left="16" laneChangedFrom="0" laneChangedTo="0"/>
        <edge id="-114024903#2" sampledSeconds="624.00" traveltime="48.00" overlapTraveltime="48.14" density="1.41" occupancy="0.00" waitingTime="0.00" speed="1.52" departed="1" arrived="1" entered="12" left="12" laneChangedFrom="0" laneChangedTo="0"/>
        <edge id="-114024903#3" sampledSeconds="0.00" departed="0" arrived="0" entered="0" left="0" laneChangedFrom="0" laneChangedTo="0"/>
        <edge id="-114024903#4" sampledSeconds="6.00" traveltime="2.00" overlapTraveltime="2.04" density="0.10" occupancy="0.00" waitingTime="0.00" speed="5.08" departed="2" arrived="1" entered="1" left="2" laneChangedFrom="0" laneChangedTo="0"/>
        <edge id="-114024903#5" sampledSeconds="67.00" traveltime="7.44" overlapTraveltime="7.61" density="1.14" occupancy="0.00" waitingTime="0.00" speed="1.31" departed="2" arrived="0" entered="7" left="9" laneChangedFrom="0" laneChangedTo="0"/>
        <edge id="-114024903#6" sampledSeconds="11.00" traveltime="2.20" overlapTraveltime="2.36" density="0.59" occupancy="0.00" waitingTime="0.00" speed="1.39" departed="1" arrived="0" entered="4" left="5" laneChangedFrom="0" laneChangedTo="0"/>
        <edge id="-114024904" sampledSeconds="16.00" traveltime="8.00" overlapTraveltime="8.05" density="0.07" occupancy="0.00" waitingTime="0.00" speed="4.54" departed="1" arrived="1" entered="1" left="1" laneChangedFrom="0" laneChangedTo="0"/>
        <edge id="-114024905" sampledSeconds="1.00" traveltime="1.00" overlapTraveltime="1.01" density="0.00" occupancy="0.00" waitingTime="0.00" speed="37.14" departed="1" arrived="0" entered="0" left="1" laneChangedFrom="0" laneChangedTo="0"/>
        <edge id="-114024906" sampledSeconds="95.00" traveltime="23.75" overlapTraveltime="23.89" density="0.42" occupancy="0.00" waitingTime="0.00" speed="1.57" departed="0" arrived="1" entered="4" left="3" laneChangedFrom="0" laneChangedTo="0"/>
        <edge id="-114207225" sampledSeconds="4.00" traveltime="1.00" overlapTraveltime="3.15" density="6.59" occupancy="0.00" waitingTime="0.00" speed="0.10" departed="1" arrived="1" entered="3" left="3" laneChangedFrom="0" laneChangedTo="0"/>
        <edge id="-114207227" sampledSeconds="10.00" traveltime="2.00" overlapTraveltime="2.08" density="0.32" occupancy="0.00" waitingTime="0.00" speed="2.61" departed="0" arrived="5" entered="5" left="0" laneChangedFrom="0" laneChangedTo="0"/>
        <edge id="-114207229" sampledSeconds="3.00" traveltime="3.00" overlapTraveltime="3.09" density="0.07" occupancy="0.00" waitingTime="0.00" speed="2.32" departed="0" arrived="1" entered="1" left="0" laneChangedFrom="0" laneChangedTo="0"/>
        <edge id="-114207232#0" sampledSeconds="5.00" traveltime="1.00" overlapTraveltime="1.36" density="1.40" occupancy="0.00" waitingTime="0.00" speed="0.59" departed="1" arrived="3" entered="5" left="3" laneChangedFrom="0" laneChangedTo="0"/>
        <edge id="-114692703#0" sampledSeconds="6.00" traveltime="1.50" overlapTraveltime="1.54" density="0.11" occupancy="0.00" waitingTime="0.00" speed="5.82" departed="2" arrived="2" entered="2" left="2" laneChangedFrom="0" laneChangedTo="0"/>
        <edge id="-114949101#0" sampledSeconds="44.00" traveltime="44.00" overlapTraveltime="44.18" density="0.14" occupancy="0.00" waitingTime="0.00" speed="1.18" departed="1" arrived="0" entered="0" left="1" laneChangedFrom="0" laneChangedTo="0"/>
        <edge id="-114952399#0" sampledSeconds="6.00" traveltime="3.00" overlapTraveltime="3.09" density="0.14" occupancy="0.00" waitingTime="0.00" speed="2.38" departed="0" arrived="2" entered="2" left="0" laneChangedFrom="0" laneChangedTo="0"/>
        <edge id="-114952399#1" sampledSeconds="57.00" traveltime="3.17" overlapTraveltime="3.33" density="2.18" occupancy="0.00" waitingTime="0.00" speed="1.36" departed="0" arrived="1" entered="18" left="17" laneChangedFrom="0" laneChangedTo="0"/>
        <edge id="-115227681" sampledSeconds="34.00" traveltime="5.67" overlapTraveltime="5.71" density="0.19" occupancy="0.00" waitingTime="0.00" speed="5.27" departed="3" arrived="3" entered="3" left="3" laneChangedFrom="0" laneChangedTo="0"/>
        <edge id="-115227682#0" sampledSeconds="58483.00" traveltime="58.31" overlapTraveltime="58.47" density="122.77" occupancy="0.00" waitingTime="0.00" speed="1.35" departed="1001" arrived="2" entered="2" left="1001" laneChangedFrom="0" laneChangedTo="0"/>
        <edge id="-115227682#1" sampledSeconds="6832.00" traveltime="58.90" overlapTraveltime="59.06" density="14.46" occupancy="0.00" waitingTime="0.00" speed="1.32" departed="1" arrived="2" entered="115" left="114" laneChangedFrom="0" laneChangedTo="0"/>
        <edge id="-115466410#0" sampledSeconds="18.00" traveltime="4.50" overlapTraveltime="4.56" density="0.20" occupancy="0.00" waitingTime="0.00" speed="3.33" departed="1" arrived="3" entered="3" left="1" laneChangedFrom="0" laneChangedTo="0"/>
        <edge id="-115466410#1" sampledSeconds="55.00" traveltime="7.86" overlapTraveltime="7.94" density="0.47" occupancy="0.00" waitingTime="0.00" speed="2.47" departed="3" arrived="1" entered="4" left="6" laneChangedFrom="0" laneChangedTo="0"/>
        <edge id="-116342915" sampledSeconds="4.00" traveltime="1.33" overlapTraveltime="1.54" density="0.48" occupancy="0.00" waitingTime="0.00" speed="1.03" departed="3" arrived="1" entered="1" left="3" laneChangedFrom="0" laneChangedTo="0"/>
        <edge id="-116391654#1" sampledSeconds="13.00" traveltime="6.50" overlapTraveltime="6.63" density="0.20" occupancy="0.00" waitingTime="0.00" speed="1.68" departed="1" arrived="1" entered="1" left="1" laneChangedFrom="0" laneChangedTo="0"/>
        <edge id="-122666828#0" sampledSeconds="1.00" traveltime="1.00" overlapTraveltime="1.01" density="0.01" occupancy="0.00" waitingTime="0.00" speed="32.51" departed="1" arrived="0" entered="0" left="1" laneChangedFrom="0" laneChangedTo="0"/>
        <edge id="-122666828#1" sampledSeconds="124.00" traveltime="13.78" overlapTraveltime="13.93" density="1.07" occupancy="0.00" waitingTime="0.00" speed="1.38" departed="0" arrived="0" entered="9" left="9" laneChangedFrom="0" laneChangedTo="0"/>
        <edge id="-122666828#2" sampledSeconds="92.00" traveltime="13.14" overlapTraveltime="13.26" density="0.63" occupancy="0.00" waitingTime="0.00" speed="1.83" departed="4" arrived="0" entered="3" left="7" laneChangedFrom="0" laneChangedTo="0"/>
        <edge id="-122868966" sampledSeconds="58.00" traveltime="19.33" overlapTraveltime="19.46" density="0.30" occupancy="0.00" waitingTime="0.00" speed="1.67" departed="2" arrived="1" entered="1" left="2" laneChangedFrom="0" laneChangedTo="0"/>
        <edge id="-125399001#0" sampledSeconds="1332.00" traveltime="57.91" overlapTraveltime="58.07" density="2.82" occupancy="0.00" waitingTime="0.00" speed="1.34" departed="1" arrived="1" entered="22" left="22" laneChangedFrom="0" laneChangedTo="0"/>
        <edge id="-125399001#1" sampledSeconds="168.00" traveltime="16.80" overlapTraveltime="16.96" density="1.25" occupancy="0.00" waitingTime="0.00" speed="1.32" departed="1" arrived="0" entered="9" left="10" laneChangedFrom="0" laneChangedTo="0"/>
        <edge id="-125399001#2" sampledSeconds="436.00" traveltime="109.00" overlapTraveltime="109.13" density="0.39" occupancy="0.00" waitingTime="0.00" speed="1.69" departed="0" arrived="2" entered="4" left="2" laneChangedFrom="0" laneChangedTo="0"/>
        <edge id="-125399001#3" sampledSeconds="774.00" traveltime="154.80" overlapTraveltime="154.97" density="0.65" occupancy="0.00" waitingTime="0.00" speed="1.27" departed="0" arrived="0" entered="5" left="5" laneChangedFrom="0" laneChangedTo="0"/>
        <edge id="-125399002#0" sampledSeconds="92.00" traveltime="11.50" overlapTraveltime="11.66" density="0.98" occupancy="0.00" waitingTime="0.00" speed="1.34" departed="1" arrived="0" entered="7" left="8" laneChangedFrom="0" laneChangedTo="0"/>
        <edge id="-125399002#1" sampledSeconds="78.00" traveltime="3.90" overlapTraveltime="4.05" density="2.36" occupancy="0.00" waitingTime="0.00" speed="1.39" departed="3" arrived="2" entered="17" left="18" laneChangedFrom="0" laneChangedTo="0"/>
        <edge id="-128643749" sampledSeconds="2.00" traveltime="2.00" overlapTraveltime="2.07" density="0.05" occupancy="0.00" waitingTime="0.00" speed="3.20" departed="0" arrived="1" entered="1" left="0" laneChangedFrom="0" laneChangedTo="0"/>
        <edge id="-133858189" sampledSeconds="191.00" traveltime="13.64" overlapTraveltime="13.80" density="1.69" occupancy="0.00" waitingTime="0.00" speed="1.36" departed="1" arrived="0" entered="13" left="14" laneChangedFrom="0" laneChangedTo="0"/>
        <edge id="-133858466" sampledSeconds="71.00" traveltime="4.44" overlapTraveltime="4.60" density="1.95" occupancy="0.00" waitingTime="0.00" speed="1.35" departed="1" arrived="1" entered="15" left="15" laneChangedFrom="0" laneChangedTo="0"/>
        <edge id="-133858467#0" sampledSeconds="198.00" traveltime="22.00" overlapTraveltime="22.16" density="1.14" occupancy="0.00" waitingTime="0.00" speed="1.30" departed="3" arrived="0" entered="6" left="9" laneChangedFrom="0" laneChangedTo="0"/>
        <edge id="-133858467#1" sampledSeconds="16.00" traveltime="4.00" overlapTraveltime="4.21" density="0.64" occupancy="0.00" waitingTime="0.00" speed="1.02" departed="2" arrived="0" entered="2" left="4" laneChangedFrom="0" laneChangedTo="0"/>
        <edge id="-133858467#2" sampledSeconds="4.00" traveltime="2.00" overlapTraveltime="2.06" density="0.09" occupancy="0.00" waitingTime="0.00" speed="3.79" departed="1" arrived="1" entered="1" left="1" laneChangedFrom="0" laneChangedTo="0"/>
        <edge id="-137482783#0" sampledSeconds="309.00" traveltime="30.90" overlapTraveltime="31.05" density="1.17" occupancy="0.00" waitingTime="0.00" speed="1.41" departed="0" arrived="1" entered="10" left="9" laneChangedFrom="0" laneChangedTo="0"/>
        <edge id="-137482783#1" sampledSeconds="18.00" traveltime="9.00" overlapTraveltime="9.18" density="0.28" occupancy="0.00" waitingTime="0.00" speed="1.17" departed="2" arrived="0" entered="0" left="2" laneChangedFrom="0" laneChangedTo="0"/>
        <edge id="-137483014#0" sampledSeconds="1990.00" traveltime="73.70" overlapTraveltime="73.86" density="3.22" occupancy="0.00" waitingTime="0.00" speed="1.38" departed="0" arrived="0" entered="27" left="27" laneChangedFrom="0" laneChangedTo="0"/>
        <edge id="-137483015#0" sampledSeconds="1940.00" traveltime="58.79" overlapTraveltime="58.95" density="4.08" occupancy="0.00" waitingTime="0.00" speed="1.33" departed="0" arrived="0" entered="33" left="33" laneChangedFrom="0" laneChangedTo="0"/>
        <edge id="-137483015#2" sampledSeconds="132.00" traveltime="4.12" overlapTraveltime="4.28" density="3.77" occupancy="0.00" waitingTime="0.00" speed="1.40" departed="0" arrived="1" entered="32" left="31" laneChangedFrom="0" laneChangedTo="0"/>
        <edge id="-137483015#3" sampledSeconds="217.00" traveltime="7.48" overlapTraveltime="7.63" density="3.29" occupancy="0.00" waitingTime="0.00" speed="1.45" departed="2" arrived="3" entered="27" left="26" laneChangedFrom="0" laneChangedTo="0"/>
        <edge id="-137534616#0" sampledSeconds="337.00" traveltime="12.48" overlapTraveltime="12.54" density="1.15" occupancy="0.00" waitingTime="0.00" speed="3.88" departed="27" arrived="0" entered="0" left="27" laneChangedFrom="0" laneChangedTo="0"/>
        <edge id="-137534616#1" sampledSeconds="233.00" traveltime="46.60" overlapTraveltime="46.71" density="0.41" occupancy="0.00" waitingTime="0.00" speed="2.00" departed="2" arrived="1" entered="3" left="4" laneChangedFrom="0" laneChangedTo="0"/>
        <edge id="-137534616#2" sampledSeconds="312.00" traveltime="39.00" overlapTraveltime="39.12" density="0.71" occupancy="0.00" waitingTime="0.00" speed="1.87" departed="2" arrived="1" entered="6" left="7" laneChangedFrom="0" laneChangedTo="0"/>
        <edge id="-137534616#3" sampledSeconds="139.00" traveltime="17.38" overlapTraveltime="17.49" density="0.68" occupancy="0.00" waitingTime="0.00" speed="1.94" departed="2" arrived="1" entered="6" left="7" laneChangedFrom="0" laneChangedTo="0"/>
        <edge id="-137534616#4" sampledSeconds="157.00" traveltime="13.08" overlapTraveltime="13.23" density="1.38" occupancy="0.00" waitingTime="0.00" speed="1.43" departed="1" arrived="0" entered="11" left="12" laneChangedFrom="0" laneChangedTo="0"/>
        <edge id="-138628388" sampledSeconds="0.00" departed="0" arrived="0" entered="0" left="0" laneChangedFrom="0" laneChangedTo="0"/>
        <edge id="-140964924#0" sampledSeconds="2.00" traveltime="1.00" overlapTraveltime="1.14" density="0.21" occupancy="0.00" waitingTime="0.00" speed="1.54" departed="0" arrived="2" entered="2" left="0" laneChangedFrom="0" laneChangedTo="0"/>
        <edge id="-140964924#1" sampledSeconds="517.00" traveltime="129.25" overlapTraveltime="129.37" density="0.38" occupancy="0.00" waitingTime="0.00" speed="1.72" departed="2" arrived="2" entered="2" left="2" laneChangedFrom="0" laneChangedTo="0"/>
        <edge id="-142575655#0" sampledSeconds="1195.00" traveltime="33.19" overlapTraveltime="33.35" density="4.40" occupancy="0.00" waitingTime="0.00" speed="1.35" departed="1" arrived="0" entered="35" left="36" laneChangedFrom="0" laneChangedTo="0"/>
        <edge id="-142575655#1" sampledSeconds="1130.00" traveltime="31.39" overlapTraveltime="31.54" density="4.28" occupancy="0.00" waitingTime="0.00" speed="1.38" departed="0" arrived="2" entered="36" left="34" laneChangedFrom="0" laneChangedTo="0"/>
        <edge id="-142575655#4" sampledSeconds="2317.00" traveltime="45.43" overlapTraveltime="45.59" density="6.16" occupancy="0.00" waitingTime="0.00" speed="1.36" departed="2" arrived="0" entered="49" left="51" laneChangedFrom="0" laneChangedTo="0"/>
        <edge id="-142575655#5" sampledSeconds="612.00" traveltime="12.24" overlapTraveltime="12.39" density="5.93" occupancy="0.00" waitingTime="0.00" speed="1.39" departed="0" arrived="3" entered="50" left="47" laneChangedFrom="0" laneChangedTo="0"/>
        <edge id="-142575655#6" sampledSeconds="643.00" traveltime="13.68" overlapTraveltime="13.83" density="5.52" occupancy="0.00" waitingTime="0.00" speed="1.40" departed="1" arrived="1" entered="46" left="46" laneChangedFrom="0" laneChangedTo="0"/>
        <edge id="-142575655#7" sampledSeconds="2410.00" traveltime="58.78" overlapTraveltime="58.94" density="5.02" occupancy="0.00" waitingTime="0.00" speed="1.34" departed="1" arrived="0" entered="40" left="41" laneChangedFrom="0" laneChangedTo="0"/>
        <edge id="-142575655#8" sampledSeconds="651.00" traveltime="14.80" overlapTraveltime="14.95" density="5.09" occupancy="0.00" waitingTime="0.00" speed="1.43" departed="1" arrived="2" entered="43" left="42" laneChangedFrom="0" laneChangedTo="0"/>
        <edge id="-142575655#9" sampledSeconds="1351.00" traveltime="30.02" overlapTraveltime="30.17" density="5.24" occupancy="0.00" waitingTime="0.00" speed="1.41" departed="2" arrived="0" entered="43" left="45" laneChangedFrom="0" laneChangedTo="0"/>
        <edge id="-142575656#0" sampledSeconds="2718.00" traveltime="39.97" overlapTraveltime="40.12" density="7.96" occupancy="0.00" waitingTime="0.00" speed="1.41" departed="2" arrived="1" entered="66" left="67" laneChangedFrom="0" laneChangedTo="0"/>
        <edge id="-142575656#1" sampledSeconds="274.00" traveltime="3.56" overlapTraveltime="3.71" density="9.20" occupancy="0.00" waitingTime="0.00" speed="1.38" departed="1" arrived="0" entered="76" left="77" laneChangedFrom="0" laneChangedTo="0"/>
        <edge id="-142575656#10" sampledSeconds="977.00" traveltime="11.36" overlapTraveltime="11.51" density="10.09" occupancy="0.00" waitingTime="0.00" speed="1.40" departed="1" arrived="3" entered="85" left="83" laneChangedFrom="0" laneChangedTo="0"/>
        <edge id="-142575656#11" sampledSeconds="1360.00" traveltime="15.45" overlapTraveltime="15.61" density="10.25" occupancy="0.00" waitingTime="0.00" speed="1.42" departed="3" arrived="1" entered="85" left="87" laneChangedFrom="0" laneChangedTo="0"/>
        <edge id="-142575656#12" sampledSeconds="772.00" traveltime="8.87" overlapTraveltime="9.03" density="10.29" occupancy="0.00" waitingTime="0.00" speed="1.39" departed="1" arrived="2" entered="86" left="85" laneChangedFrom="0" laneChangedTo="0"/>
        <edge id="-142575656#14" sampledSeconds="1505.00" traveltime="24.67" overlapTraveltime="24.82" density="7.01" occupancy="0.00" waitingTime="0.00" speed="1.43" departed="3" arrived="2" entered="58" left="59" laneChangedFrom="0" laneChangedTo="0"/>
        <edge id="-142575656#15" sampledSeconds="1134.00" traveltime="19.22" overlapTraveltime="19.37" density="6.85" occupancy="0.00" waitingTime="0.00" speed="1.42" departed="1" arrived="1" entered="58" left="58" laneChangedFrom="0" laneChangedTo="0"/>
        <edge id="-142575656#3" sampledSeconds="992.00" traveltime="32.00" overlapTraveltime="32.15" density="3.57" occupancy="0.00" waitingTime="0.00" speed="1.43" departed="1" arrived="0" entered="30" left="31" laneChangedFrom="0" laneChangedTo="0"/>
        <edge id="-142575656#4" sampledSeconds="632.00" traveltime="5.50" overlapTraveltime="5.65" density="13.28" occupancy="0.00" waitingTime="0.00" speed="1.43" departed="1" arrived="2" entered="114" left="113" laneChangedFrom="0" laneChangedTo="0"/>
        <edge id="-142575656#5" sampledSeconds="741.00" traveltime="9.88" overlapTraveltime="10.03" density="8.60" occupancy="0.00" waitingTime="0.00" speed="1.44" departed="2" arrived="1" entered="73" left="74" laneChangedFrom="0" laneChangedTo="0"/>
        <edge id="-142575656#6" sampledSeconds="1825.00" traveltime="34.43" overlapTraveltime="34.58" density="6.02" occupancy="0.00" waitingTime="0.00" speed="1.45" departed="2" arrived="2" entered="51" left="51" laneChangedFrom="0" laneChangedTo="0"/>
        <edge id="-142575656#7" sampledSeconds="3613.00" traveltime="37.64" overlapTraveltime="37.79" density="11.17" occupancy="0.00" waitingTime="0.00" speed="1.42" departed="1" arrived="3" entered="95" left="93" laneChangedFrom="0" laneChangedTo="0"/>
        <edge id="-142575656#8" sampledSeconds="1297.00" traveltime="13.80" overlapTraveltime="13.95" density="11.11" occupancy="0.00" waitingTime="0.00" speed="1.39" departed="2" arrived="2" entered="92" left="92" laneChangedFrom="0" laneChangedTo="0"/>
        <edge id="-142575656#9" sampledSeconds="270.00" traveltime="3.14" overlapTraveltime="3.29" density="10.18" occupancy="0.00" waitingTime="0.00" speed="1.39" departed="0" arrived="0" entered="86" left="86" laneChangedFrom="0" laneChangedTo="0"/>
        <edge id="-142575657#0" sampledSeconds="416.00" traveltime="41.60" overlapTraveltime="41.74" density="1.10" occupancy="0.00" waitingTime="0.00" speed="1.49" departed="1" arrived="1" entered="9" left="9" laneChangedFrom="0" laneChangedTo="0"/>
        <edge id="-142575657#1" sampledSeconds="184.00" traveltime="18.40" overlapTraveltime="18.53" density="1.02" occupancy="0.00" waitingTime="0.00" speed="1.62" departed="0" arrived="3" entered="10" left="7" laneChangedFrom="0" laneChangedTo="0"/>
        <edge id="-142575657#2" sampledSeconds="42.00" traveltime="6.00" overlapTraveltime="6.13" density="0.71" occupancy="0.00" waitingTime="0.00" speed="1.64" departed="1" arrived="2" entered="6" left="5" laneChangedFrom="0" laneChangedTo="0"/>
        <edge id="-142575657#3" sampledSeconds="277.00" traveltime="39.57" overlapTraveltime="39.68" density="0.57" occupancy="0.00" waitingTime="0.00" speed="2.01" departed="0" arrived="4" entered="7" left="3" laneChangedFrom="0" laneChangedTo="0"/>
        <edge id="-142575657#4" sampledSeconds="151.00" traveltime="75.50" overlapTraveltime="75.58" density="0.13" occupancy="0.00" waitingTime="0.00" speed="2.62" departed="0" arrived="2" entered="2" left="0" laneChangedFrom="0" laneChangedTo="0"/>
        <edge id="-142575658#0" sampledSeconds="41.00" traveltime="13.67" overlapTraveltime="13.69" density="0.06" occupancy="0.00" waitingTime="0.00" speed="7.81" departed="2" arrived="1" entered="1" left="2" laneChangedFrom="0" laneChangedTo="0"/>
        <edge id="-142575658#1" sampledSeconds="1524.00" traveltime="76.20" overlapTraveltime="76.33" density="2.06" occupancy="0.00" waitingTime="0.00" speed="1.60" departed="2" arrived="2" entered="18" left="18" laneChangedFrom="0" laneChangedTo="0"/>
        <edge id="-142575658#2" sampledSeconds="419.00" traveltime="27.93" overlapTraveltime="28.09" density="1.77" occupancy="0.00" waitingTime="0.00" speed="1.40" departed="0" arrived="0" entered="15" left="15" laneChangedFrom="0" laneChangedTo="0"/>
        <edge id="-142575659#0" sampledSeconds="0.00" departed="0" arrived="0" entered="0" left="0" laneChangedFrom="0" laneChangedTo="0"/>
        <edge id="-142575659#1" sampledSeconds="0.00" departed="0" arrived="0" entered="0" left="0" laneChangedFrom="0" laneChangedTo="0"/>
        <edge id="-142575659#2" sampledSeconds="0.00" departed="0" arrived="0" entered="0" left="0" laneChangedFrom="0" laneChangedTo="0"/>
        <edge id="-142575661#0" sampledSeconds="284.00" traveltime="10.52" overlapTraveltime="10.67" density="3.07" occupancy="0.00" waitingTime="0.00" speed="1.45" departed="2" arrived="2" entered="25" left="25" laneChangedFrom="0" laneChangedTo="0"/>
        <edge id="-142575661#1" sampledSeconds="422.00" traveltime="13.61" overlapTraveltime="13.76" density="3.61" occupancy="0.00" waitingTime="0.00" speed="1.42" departed="0" arrived="2" entered="31" left="29" laneChangedFrom="0" laneChangedTo="0"/>
        <edge id="-142575661#2" sampledSeconds="803.00" traveltime="114.71" overlapTraveltime="114.88" density="0.87" occupancy="0.00" waitingTime="0.00" speed="1.32" departed="0" arrived="0" entered="7" left="7" laneChangedFrom="0" laneChangedTo="0"/>
        <edge id="-142575661#3" sampledSeconds="74.00" traveltime="12.33" overlapTraveltime="12.46" density="0.58" occupancy="0.00" waitingTime="0.00" speed="1.70" departed="1" arrived="2" entered="5" left="4" laneChangedFrom="0" laneChangedTo="0"/>
        <edge id="-142575661#4" sampledSeconds="140.00" traveltime="35.00" overlapTraveltime="35.16" density="0.48" occupancy="0.00" waitingTime="0.00" speed="1.37" departed="0" arrived="0" entered="4" left="4" laneChangedFrom="0" laneChangedTo="0"/>
        <edge id="-142575662#0" sampledSeconds="166.00" traveltime="12.77" overlapTraveltime="12.92" density="1.52" occupancy="0.00" waitingTime="0.00" speed="1.41" departed="1" arrived="1" entered="12" left="12" laneChangedFrom="0" laneChangedTo="0"/>
        <edge id="-142575662#1" sampledSeconds="793.00" traveltime="79.30" overlapTraveltime="79.44" density="1.10" occupancy="0.00" waitingTime="0.00" speed="1.50" departed="0" arrived="2" entered="10" left="8" laneChangedFrom="0" laneChangedTo="0"/>
        <edge id="-142575662#2" sampledSeconds="48.00" traveltime="48.00" overlapTraveltime="48.07" density="0.05" occupancy="0.00" waitingTime="0.00" speed="3.18" departed="0" arrived="1" entered="1" left="0" laneChangedFrom="0" laneChangedTo="0"/>
        <edge id="-142575672#2" sampledSeconds="137.00" traveltime="17.12" overlapTraveltime="17.27" density="0.89" occupancy="0.00" waitingTime="0.00" speed="1.48" departed="0" arrived="1" entered="8" left="7" laneChangedFrom="0" laneChangedTo="0"/>
        <edge id="-142575673" sampledSeconds="51.00" traveltime="10.20" overlapTraveltime="10.22" density="0.08" occupancy="0.00" waitingTime="0.00" speed="10.49" departed="4" arrived="1" entered="1" left="4" laneChangedFrom="0" laneChangedTo="0"/>
        <edge id="-142575674#0" sampledSeconds="3.00" traveltime="1.00" overlapTraveltime="1.47" density="1.07" occupancy="0.00" waitingTime="0.00" speed="0.46" departed="0" arrived="2" entered="5" left="3" laneChangedFrom="0" laneChangedTo="0"/>
        <edge id="-142575674#1" sampledSeconds="378.00" traveltime="37.80" overlapTraveltime="37.91" density="0.82" occupancy="0.00" waitingTime="0.00" speed="2.02" departed="2" arrived="3" entered="8" left="7" laneChangedFrom="0" laneChangedTo="0"/>
        <edge id="-142575674#4" sampledSeconds="3803.00" traveltime="31.17" overlapTraveltime="31.34" density="15.59" occupancy="0.00" waitingTime="0.00" speed="1.29" departed="0" arrived="0" entered="122" left="122" laneChangedFrom="0" laneChangedTo="0"/>
        <edge id="-142575677#0" sampledSeconds="144.00" traveltime="72.00" overlapTraveltime="72.16" density="0.24" occupancy="0.00" waitingTime="0.00" speed="1.37" departed="0" arrived="0" entered="2" left="2" laneChangedFrom="0" laneChangedTo="0"/>
        <edge id="-142575677#1" sampledSeconds="32.00" traveltime="16.00" overlapTraveltime="16.04" density="0.06" occupancy="0.00" waitingTime="0.00" speed="5.51" departed="1" arrived="1" entered="1" left="1" laneChangedFrom="0" laneChangedTo="0"/>
        <edge id="-142575677#2" sampledSeconds="847.00" traveltime="94.11" overlapTraveltime="94.23" density="0.80" occupancy="0.00" waitingTime="0.00" speed="1.84" departed="1" arrived="2" entered="8" left="7" laneChangedFrom="0" laneChangedTo="0"/>
        <edge id="-142575677#3" sampledSeconds="376.00" traveltime="26.86" overlapTraveltime="27.01" density="1.61" occupancy="0.00" waitingTime="0.00" speed="1.43" departed="0" arrived="1" entered="14" left="13" laneChangedFrom="0" laneChangedTo="0"/>
        <edge id="-142575684#0" sampledSeconds="311.00" traveltime="12.96" overlapTraveltime="13.10" density="2.59" occupancy="0.00" waitingTime="0.00" speed="1.52" departed="2" arrived="1" entered="22" left="23" laneChangedFrom="0" laneChangedTo="0"/>
        <edge id="-142575684#1" sampledSeconds="314.00" traveltime="8.26" overlapTraveltime="8.42" density="4.59" occupancy="0.00" waitingTime="0.00" speed="1.37" departed="3" arrived="1" entered="35" left="37" laneChangedFrom="0" laneChangedTo="0"/>
        <edge id="-142575684#4" sampledSeconds="1180.00" traveltime="51.30" overlapTraveltime="51.45" density="2.61" occupancy="0.00" waitingTime="0.00" speed="1.45" departed="1" arrived="3" entered="22" left="20" laneChangedFrom="0" laneChangedTo="0"/>
        <edge id="-142575684#5" sampledSeconds="205.00" traveltime="68.33" overlapTraveltime="68.41" density="0.17" occupancy="0.00" waitingTime="0.00" speed="2.90" departed="2" arrived="1" entered="1" left="2" laneChangedFrom="0" laneChangedTo="0"/>
        <edge id="-142575687#0" sampledSeconds="863.00" traveltime="61.64" overlapTraveltime="61.79" density="1.61" occupancy="0.00" waitingTime="0.00" speed="1.43" departed="0" arrived="1" entered="14" left="13" laneChangedFrom="0" laneChangedTo="0"/>
        <edge id="-142575687#1" sampledSeconds="383.00" traveltime="22.53" overlapTraveltime="22.67" density="1.89" occupancy="0.00" waitingTime="0.00" speed="1.48" departed="3" arrived="1" entered="14" left="16" laneChangedFrom="0" laneChangedTo="0"/>