<?xml version="1.0" encoding="UTF-8"?>

<!-- generated on Fri Oct  2 11:49:43 2020 by Eclipse SUMO sumo Version v1_7_0+0414-abba6bd674
<configuration xmlns:xsi="http://www.w3.org/2001/XMLSchema-instance" xsi:noNamespaceSchemaLocation="http://sumo.dlr.de/xsd/sumoConfiguration.xsd">

    <input>
        <net-file value="osm.net.xml"/>
        <route-files value="osm_pt.rou.xml,osm.passenger.trips.xml,osm.pedestrian.rou.xml"/>
        <additional-files value="osm.poly.xml,osm_stops.add.xml"/>
    </input>

    <output>
        <vehroute-output value="vehroutes.xml"/>
        <vehroute-output.skip-ptlines value="true"/>
    </output>

    <processing>
        <ignore-route-errors value="true"/>
    </processing>

    <routing>
        <device.rerouting.adaptation-steps value="18"/>
        <device.rerouting.adaptation-interval value="10"/>
    </routing>

    <report>
        <verbose value="true"/>
        <duration-log.statistics value="true"/>
        <no-step-log value="true"/>
    </report>

    <gui_only>
        <gui-settings-file value="osm.view.xml"/>
    </gui_only>

</configuration>
-->

<routes xmlns:xsi="http://www.w3.org/2001/XMLSchema-instance" xsi:noNamespaceSchemaLocation="http://sumo.dlr.de/xsd/routes_file.xsd">
    <vehicle id="veh1" type="veh_passenger" depart="2.00" departLane="1" arrival="88.00">
        <route edges="-317451316#1 -317451316#0 -283317444#2 -283317444#1 -22928690#1 -22928690#0 -22928688#1 -22928688#0"/>
    </vehicle>

    <vehicle id="veh19" type="veh_passenger" depart="28.00" departLane="1" arrival="90.00">
        <route edges="38159999#3 38159999#4 38159999#6 38159999#7 38159999#8 38159999#9 38159999#10 38160000 -172013798#6 -172013798#5 -172013798#4 -147859765#7 -147859765#6 -147859765#3 147859765#3"/>
    </vehicle>

    <vehicle id="veh31" type="veh_passenger" depart="45.00" departLane="2" arrival="92.00">
        <route edges="320744674#0 146511465 320744687 206579084 292525975 292525973"/>
    </vehicle>

    <vehicle id="veh23" type="veh_passenger" depart="34.00" departLane="1" arrival="125.00">
        <route edges="-142575704#2 142575704#2 142575704#3 142575704#4 142575704#6 142575704#7 142575704#8 142575704#10 142575704#11 -26991766#9 -26991766#7 -26991766#6 -26991766#5 -26991766#4 -26991766#3 -26991766#1 172013798#4 172013798#5 172013798#6 38160001#0 -318210367#0 -318210369#1 -318210369#0"/>
    </vehicle>

    <vehicle id="veh3" type="veh_passenger" depart="5.00" departLane="1" arrival="126.00">
        <route edges="46039050#4 46039050#7 143308542#0 143308542#1 143308542#3 143308542#4 143308542#6 143308542#7 142575691#0 142575691#1 142575691#2 147859766 147859765#1 147859765#2 147859765#3 -843190005#4 -843190005#3 -843190005#2 -843190005#1 -843190005#0 -142575694#5"/>
    </vehicle>

    <vehicle id="veh29" type="veh_passenger" depart="42.00" departLane="0" arrival="135.00">
        <route edges="843190005#0 843190005#1 843190005#2 843190005#3 843190005#4 -147859765#3 -147859765#2 -147859765#1 -147859765#0 582467484#1 147859763#1 147859763#2 147859763#3 147859763#4 147859763#5 147859763#7 147859763#8 147859763#9 172014854#0 172014854#1 172014854#2 320741895#0 -190083618#2 -24214694#5 24214694#5 190083618#0"/>
    </vehicle>

    <vehicle id="veh39" type="veh_passenger" depart="57.00" departLane="2" arrival="144.00">
        <route edges="143308549#3 670062912#1 81639675#1 81639675#2 81639675#3 81639675#4 -318210361#3 -318210361#0 -314415495#25 -314415495#22 -314415495#21 -314415495#20 -314415495#19 -314415495#17 -314415495#16 -314415495#15 -314415495#14 -314415495#13 -314415495#12 -314415495#11"/>
    </vehicle>

    <vehicle id="veh37" type="veh_passenger" depart="54.00" departLane="1" arrival="146.00">
        <route edges="52081075#7 52081075#8 142575655#10 142575655#12 142575655#13 -143308521#13 -143308521#12 -143308521#11 -143308521#9 -143308521#4 -143308521#3 -143308521#2 -143308521#1 142575679#1 142575679#2 142575679#3 142575679#5 142575679#6 142575673#0"/>
    </vehicle>

    <vehicle id="veh32" type="veh_passenger" depart="47.00" departLane="1" departSpeed="8.29" arrival="149.00">
        <route edges="-23788323 -137534616#1 -137534616#0 23913524#0 23913524#1 149611514#8 149611514#9 20551905#1 20551905#2 20551905#3 20551905#4 98256382#0 98256382#1 -140964910#3"/>
    </vehicle>

    <vehicle id="veh52" type="veh_passenger" depart="75.00" departLane="1" arrival="157.00">
        <route edges="-143308521#1 142575679#1 142575679#2 142575679#3 142575679#5 142575679#6 142575679#7 142575679#8 142575679#9 143308532#8 143308532#9 46039051#0 -141968853#4 141968853#4"/>
    </vehicle>

    <vehicle id="veh44" type="veh_passenger" depart="64.00" departLane="1" arrival="164.00">
        <route edges="-143308505#1 -142575656#11 -142575656#10 142575674#1 142575674#2 142575674#3 52081075#0 52081075#3 52081075#4 52081075#7 52081075#8 -142575655#7 -142575655#6 -142575655#5 180789857#1 180789857#2"/>
    </vehicle>

    <vehicle id="veh38" type="veh_passenger" depart="55.00" departLane="1" arrival="165.00">
        <route edges="-314415495#17 314415495#17 314415495#19 314415495#20 314415495#21 314415495#22 314415495#24 318210361#0 318210361#1 670062909#1 670062908#1 670062907#1 670062907#2 670062907#3 670062907#4 670062907#5 670062907#6 670062907#9 677933664#5 677933664#7 -24733698#3"/>
    </vehicle>

    <vehicle id="veh64" type="veh_passenger" depart="93.00" departLane="2" arrival="166.00">
        <route edges="40191605#3 40191605#4 40191605#5 800655352 800655351 190928926#0 39969574#1 670062920 670062919#2 670062919#3"/>
    </vehicle>

    <vehicle id="veh43" type="veh_passenger" depart="62.00" departLane="1" arrival="169.00">
        <route edges="-142575699#2 142575699#2 142575699#3 46039050#4 46039050#7 143308542#0 143308542#1 143308542#3 143308542#4 143308542#6 143308542#7 143308542#8 -142575674#5 -142575674#2 -142575674#1 -142575656#9 -142575656#8 -142575656#7 -142575656#6"/>
    </vehicle>

    <vehicle id="veh25" type="veh_passenger" depart="37.00" departLane="1" arrival="178.00">
        <route edges="-841345135#1 841345135#1 -318210378#5 -318210378#4 -318210378#0 -318210377#0 -31050360#2 670062907#1 670062907#2 670062907#3 670062907#4 670062907#5 670062907#6 670062907#9 677933664#5 677933664#7 143308546#1 143308546#2 143308546#3 143308546#4 143308546#5 143308546#9 143308546#10 143308546#11 670062902#2 670062902#3 143308532#0 143308532#2 143308532#5 143308532#8 143308532#9 -318210380#2 -206579063#0"/>
    </vehicle>

    <vehicle id="veh68" type="veh_passenger" depart="99.00" departLane="1" arrival="182.00">
        <route edges="142575679#8 -142575679#8 -142575679#7 142575673#0 142575673#1 142575690#0 142575690#1 -543074338 -142575659#3 -142575659#2 -142575659#1 -142575659#0 -71028774#1 -71028774#0 -71028777#4 -71028777#2 -71028777#1 -71028777#0 24733698#3 143308546#1 143308546#2 143308546#3 143308546#4 143308546#5"/>
    </vehicle>

    <vehicle id="veh13" type="veh_passenger" depart="19.00" departLane="1" arrival="186.00">
        <route edges="-142575700#2 -142575700#1 -142575700#0 -334308447#6 -334308447#4 -334308447#1 -334308447#0 -318210394#0 -52080655#2 670062912#1 81639675#1 81639675#2 81639675#3 81639675#4 -318210361#3 -318210361#0 -314415495#25 -314415495#22 -314415495#21 142575656#0 142575656#1 142575656#3 142575656#4 142575704#6 142575704#7 142575704#8 142575704#10 142575704#11 142575704#12 -142575704#12"/>
    </vehicle>

    <vehicle id="veh65" type="veh_passenger" depart="94.00" departLane="1" arrival="188.00">
        <route edges="-142575694#2 -142575694#1 -142575694#0 -142575704#7 -142575704#6 142575656#6 142575656#7 142575656#8 142575656#9 142575674#1 142575674#2 142575674#3 677933664#5 677933664#7 143308546#1 143308546#2 143308546#3 143308546#4 143308546#5 142575692#0"/>
    </vehicle>

    <vehicle id="veh20" type="veh_passenger" depart="29.00" departLane="1" arrival="189.00">
        <route edges="221111489 574527503 24038573#0 24038573#1 375685717#1 382647882 81639678#1 48858193#1 48858193#2 -578917008 -318210371#4 -318210371#2 -318210371#1 -318210371#0 142575678#1 38160000 -172013798#6 -172013798#5 -172013798#4 -147859765#7 -147859765#6 -147859765#3 -147859765#2 -147859765#1 -147859765#0 -142575656#14"/>
    </vehicle>

    <vehicle id="veh107" type="veh_passenger" depart="155.00" departLane="1" arrival="200.00">
        <route edges="142575694#2 142575694#3 142575694#4 142575694#5 843190005#0 843190005#1 843190005#2 843190005#3 843190005#4 147859765#6 147859765#7 172013798#4 172013798#5 172013798#6 -38160000 38160000"/>
    </vehicle>

    <vehicle id="veh88" type="veh_passenger" depart="127.00" departLane="2" arrival="211.00">
        <route edges="81639675#3 81639675#4 -318210361#3 -318210361#0 -314415495#25 -314415495#22 -314415495#21 142575656#0 142575656#1 142575656#3 142575656#4 142575704#6 142575704#7 142575704#8 142575704#10 142575704#11 142575704#12 142575704#13 142575704#14 142575704#15 -142575704#15"/>
    </vehicle>

    <vehicle id="veh40" type="veh_passenger" depart="58.00" departLane="1" arrival="212.00">
        <route edges="147859763#4 -147859763#4 -147859763#3 -147859763#2 -147859763#1 -147859763#0 147859766 147859765#1 147859765#2 147859765#3 147859765#6 147859765#7 172013798#4 172013798#5 172013798#6 38160001#0 318210367#2 318210364#1 318210371#1 318210371#2 318210371#4 578917008 142575667#0 48858191#1 48858191#3 318210383#0 52243916#1 -43660343#1 43660343#1 48298278#0"/>
    </vehicle>

    <vehicle id="veh11" type="veh_passenger" depart="16.00" departLane="1" arrival="213.00">
        <route edges="-52081075#4 -52081075#3 -52081075#2 143308542#11 143308542#15 143308542#16 143308542#17 143308542#18 143308542#19 143308552#1 143308549#1 143308549#2 143308549#3 52036180#1 52036180#2 52036180#4 72230304#1 461514282#0 461514282#1 204721578#0 204721578#1 153021549#0 153021549#1 153021549#2 153021549#3 153021549#4 153021549#6 -149611526#1"/>
    </vehicle>

    <vehicle id="veh109" type="veh_passenger" depart="158.00" departLane="1" arrival="214.00">
        <route edges="-142575688#7 -142575688#6 -142575688#5 -142575688#4 142575691#2 147859766 147859765#1 147859765#2 147859765#3 147859765#6 147859765#7 172013798#4 172013798#5 172013798#6 -172013798#6"/>
    </vehicle>

    <vehicle id="veh36" type="veh_passenger" depart="52.00" departLane="1" departSpeed="9.18" arrival="215.00">
        <route edges="187123053#0 187123053#1 -152839428 45875465 679901152#0 206889086#1 152839448 541676219 318210389#0 670062912#1 81639675#1 81639675#2 81639675#3 81639675#4 -318210361#3 -318210361#0 -314415495#25 -314415495#22 -314415495#21 -314415495#20 -314415495#19 -314415495#17 -314415495#16 -314415495#15 -314415495#14 -314415495#13 -314415495#12 -314415495#11 -314415495#10 -314415495#9 -314415495#8 -314415495#7 -314415495#6 -314415495#5 -314415495#4 -142575709#1 -142575709#0 137483015#2 137483015#3 137483015#5"/>
    </vehicle>

    <vehicle id="veh51" type="veh_passenger" depart="74.00" departLane="1" arrival="217.00">
        <route edges="-314415495#22 -314415495#21 -314415495#20 -314415495#19 -314415495#17 -314415495#16 -314415495#15 -314415495#14 -314415495#13 -314415495#12 -314415495#11 -314415495#10 -314415495#9 -314415495#8 -314415495#7 -314415495#6 -314415495#5 -314415495#4 -314415495#3 -314415495#1 -314415495#0 52243916#1 -43660343#1 -43660343#0 10735918#0 10735918#1 27087586#1 800655351 190928926#0"/>
    </vehicle>

    <vehicle id="veh7" type="veh_passenger" depart="11.00" departLane="1" arrival="220.00">
        <route edges="187122892#2 -187122892#2 -187122892#1 -146511461#4 -146511461#3 -146511461#2 -146511461#1 153021549#0 153021549#1 153021549#2 153021549#3 153021549#4 153021549#6 40191606#0 40191606#2 40191606#3 40191606#4 40191606#5 414563781 206889086#1 152839448 541676219 318210389#0 670062912#1 81639675#1 81639675#2 81639675#3 81639675#4 670062909#1 670062908#1 670062907#1 670062907#2 670062907#3 670062907#4 670062907#5 670062907#6 670062907#9 677933664#5 677933664#7 143308546#1"/>
    </vehicle>

    <vehicle id="veh14" type="veh_passenger" depart="21.00" departLane="1" arrival="227.00">
        <route edges="334308450 -334308447#7 -334308447#6 -334308447#4 -334308447#1 -334308447#0 -318210394#0 -52080655#2 52036180#1 52036180#2 52036180#4 72230304#1 461514282#0 461514282#1 204721578#0 204721578#1 153021553#1 318210353 207086005 318210360#0 318210360#1 152839434#1"/>
    </vehicle>

    <vehicle id="veh2" type="veh_passenger" depart="3.00" departLane="1" arrival="230.00">
        <route edges="23925119#0 23925119#1 40191606#2 40191606#3 40191606#4 40191606#5 414563781 206889086#1 152839448 541676219 318210389#0 670062912#1 81639675#1 81639675#2 81639675#3 81639675#4 670062909#1 670062908#1 670062907#1 670062907#2 670062907#3 670062907#4 670062907#5 670062907#6 670062907#9 677933664#5 677933664#7 143308546#1 143308546#2 143308546#3 143308546#4 143308546#5 143308546#9 143308546#10 143308546#11 670062902#2 670062902#3 143308532#0 143308532#2 143308532#5 143308532#8 143308532#9 -206579062#4 206579062#2"/>
    </vehicle>

    <vehicle id="veh94" type="veh_passenger" depart="136.00" departLane="2" arrival="234.00">
        <route edges="143308542#4 143308542#6 143308542#7 143308542#8 52081075#0 52081075#3 52081075#4 52081075#7 52081075#8 142575655#10 142575655#12 142575655#13 -143308521#13 -143308521#12 -143308521#11 -143308521#9 142575657#1 142575657#3 142575657#4 -142575657#4"/>
    </vehicle>

    <vehicle id="veh69" type="veh_passenger" depart="100.00" departLane="1" arrival="236.00">
        <route edges="-314415495#17 314415495#17 314415495#19 314415495#20 314415495#21 314415495#22 314415495#24 318210361#0 318210361#1 143308549#1 143308549#2 143308549#3 52036180#1 52036180#2 52036180#4 -679901152#1 -45875465 152839428 24152326#0 24152326#1 23925124#0 23925119#0 23925119#1 40191606#2 40191606#3"/>
    </vehicle>

    <person id="ped88" type="ped_pedestrian" depart="92.83" arrival="239.00">
        <walk edges="-156071615#4 -70133621#0 71028774#1 71028774#0 142575693#5 142575693#6"/>
    </person>

    <vehicle id="veh99" type="veh_passenger" depart="143.00" departLane="1" arrival="244.00">
        <route edges="-314415495#17 -314415495#16 -314415495#15 -314415495#14 -314415495#13 -314415495#12 -314415495#11 -314415495#10 -314415495#9 -314415495#8 -314415495#7 -314415495#6 -314415495#5 -314415495#4 -314415495#3 -314415495#1 -314415495#0 48858192#1 318210388#0 -318210386#2 -81639678#0 -375685718#1 -375685718#0 30978409#0"/>
    </vehicle>

    <vehicle id="veh16" type="veh_passenger" depart="24.00" departLane="1" arrival="248.00">
        <route edges="143308523#8 143308523#9 73058506#1 73058506#2 73058506#3 169076556#0 169076556#1 169076556#2 169076556#3 190083616#0 190083616#1 318210395 -190083618#2 -24214694#5 -24214694#4 -24214694#3 143308590#0 143308542#0 143308542#1 143308542#3 143308542#4 143308542#6 143308542#7 143308542#8 52081075#0 52081075#3 52081075#4 52081075#7 52081075#8 802021414#1"/>
    </vehicle>

    <vehicle id="veh100" type="veh_passenger" depart="145.00" departLane="1" arrival="252.00">
        <route edges="142575657#6 142575662#5 142575662#6 -38915289#1 -38915289#0 142575679#1 142575679#2 142575679#3 142575679#5 142575679#6 142575679#7 142575679#8 142575679#9 143308532#8 143308532#9 46039051#0 -141968853#4 -141968853#3 -141968853#2 -141968853#1 -141968853#0 141968814#0 141968814#1 141968844#3 141873658#0"/>
    </vehicle>

    <vehicle id="veh122" type="veh_passenger" depart="179.00" departLane="1" arrival="253.00">
        <route edges="40191606#2 40191606#3 40191606#4 40191606#5 414563781 40191607#1 40191607#2"/>
    </vehicle>

    <vehicle id="veh18" type="veh_passenger" depart="26.00" departLane="1" arrival="257.00">
        <route edges="318210373#2 -142575661#3 -142575661#2 -142575661#1 314415495#19 314415495#20 142575656#0 142575656#1 142575656#3 142575656#4 142575656#6 142575656#7 142575656#8 142575656#9 142575656#10 142575656#11 142575656#13 142575656#14 582467484#1 147859763#1 147859763#2 147859763#3 147859763#4 147859763#5 147859763#7 147859763#8 147859763#9 172014854#0 172014854#1 172014854#2 320741895#0 -283317455#1 -190083616#1 -190083616#0 -169076556#3 -169076556#2 -169076556#1 -169076556#0 -81096611#8 -81096611#7 -81096611#6 -81096611#4 -81096611#3 -81096611#2 -169076559#2 169076559#2"/>
    </vehicle>

    <vehicle id="veh27" type="veh_passenger" depart="39.00" departLane="1" arrival="258.00">
        <route edges="-169076556#1 169076556#1 169076556#2 169076556#3 190083616#0 190083616#1 318210395 320741894#0 190083608#1 190083608#2 190083608#3 318210369#1 318210366 318210367#2 318210364#1 318210371#1 318210371#2 318210371#4 578917008 142575667#0 -318210386#2 -81639678#0 -375685717#1 -24038573#1 -24038573#0 24038573#0"/>
    </vehicle>

    <vehicle id="veh102" type="veh_passenger" depart="148.00" departLane="1" arrival="259.00">
        <route edges="143308546#2 143308546#3 143308546#4 143308546#5 142575692#0 142575692#2 142575692#3 142575692#5 142575692#6 142575692#7 142575692#8 -142575655#13 -142575655#12 -142575655#10 -142575655#7 -142575655#6 -142575655#5 -142575655#2 -142575655#1 38915290#1 38915290#2 8025704#0 231626692#0 231626692#1"/>
    </vehicle>

    <vehicle id="veh104" type="veh_passenger" depart="150.00" departLane="2" arrival="259.00">
        <route edges="72230304#1 461514282#0 461514282#1 204721578#0 204721578#1 153021549#0 153021549#1 153021549#2 153021549#3 153021549#4 153021549#6 -149611526#1 -149611526#0 149611511#0"/>
    </vehicle>

    <vehicle id="veh17" type="veh_passenger" depart="25.00" departLane="1" arrival="263.00">
        <route edges="-98256382#2 -98256382#1 -98256382#0 20551905#5 20551905#6 20551905#0 -149611514#9 -149611514#8 -23913524#1 -23913524#0 137534616#0 137534616#1 137534616#2 137534616#3 137534616#4 166142951#0 166142951#1 149611526#0 149611526#1 40191606#0 40191606#2 40191606#3 40191606#4 40191606#5 414563781 206889086#1 152839448 541676219 318210389#0 670062912#1 81639675#1 81639675#2 81639675#3 81639675#4 143308549#1 143308549#2"/>
    </vehicle>

    <person id="ped148" type="ped_pedestrian" depart="156.12" arrival="265.00">
        <walk edges="142575690#5 -25944601#1 -25944601#0 -70214888#3 -70214888#2 -133858467#0"/>
    </person>

    <vehicle id="veh12" type="veh_passenger" depart="18.00" departLane="1" arrival="266.00">
        <route edges="683972875#2 -683972875#2 -683972875#0 -143308527#6 -143308527#5 -143308527#1 -143308527#0 -318210378#0 -318210377#0 -31050360#2 670062907#1 670062907#2 670062907#3 670062907#4 670062907#5 670062907#6 670062907#9 677933664#5 677933664#7 143308546#1 143308546#2 143308546#3 143308546#4 143308546#5 143308546#9 143308546#10 143308546#11 670062902#2 670062902#3 143308532#0 143308532#2 143308532#5 143308532#8 143308532#9 46039051#0 -141968853#4 -141968853#3 -141968853#2 -141968853#1 -141968853#0 141968814#0 141968814#1 141968844#3 141873658#0 141873658#1 -52460499#12 -52460499#11 -52460499#10 -52460499#9 -52460499#8 -52460499#7 -52460499#6 -52460499#5 -52460499#4"/>
    </vehicle>

    <vehicle id="veh63" type="veh_passenger" depart="91.00" departLane="1" arrival="266.00">
        <route edges="-38159999#2 38159999#2 38159999#3 38159999#4 -142575704#15 -142575704#14 -142575704#13 -142575704#12 -142575704#11 -142575704#10 -142575704#8 -142575704#7 -142575704#6 142575656#6 142575656#7 142575656#8 142575656#9 142575674#1 142575674#2 142575674#3 52081075#0 52081075#3 52081075#4 52081075#7 52081075#8 142575655#10 142575655#12 142575655#13 -143308521#13 -143308521#12 -143308521#11 -143308521#9 142575657#1 142575657#3 142575657#4 142575657#6 -142575662#2"/>
    </vehicle>

    <vehicle id="veh54" type="veh_passenger" depart="78.00" departLane="2" arrival="268.00">
        <route edges="40191605#1 40191605#2 40191605#3 40191605#4 40191605#5 800655352 800655351 190928926#0 152839434#1 43660343#0 43660343#1 48298278#0 81639685#0 314415495#1 314415495#3 314415495#4 314415495#5 314415495#6 314415495#7 314415495#8 314415495#9 314415495#10 314415495#11 314415495#12 -314415495#12"/>
    </vehicle>

    <person id="ped245" type="ped_pedestrian" depart="258.43" arrival="269.00">
        <walk edges="-38159999#9 -38159999#10"/>
    </person>

    <vehicle id="veh26" type="veh_passenger" depart="38.00" departLane="0" arrival="278.00">
        <route edges="180789857#9 180789857#10 180789857#11 180789857#12 180789857#13 180789857#14 180789857#15 180789857#16 180789857#17 52081116#11 70130339#3 70130339#4 118262353#2 -38915290#2 -38915290#1 -318210378#9 -318210378#8 -318210378#7 -318210378#5 -318210378#4 -318210378#0 -318210377#0 -31050360#2 143308552#1 143308549#1 143308549#2 143308549#3 52036180#1 52036180#2 52036180#4 72230304#1 461514282#0 461514282#1 204721578#0 204721578#1 153021549#0 153021549#1 153021549#2"/>
    </vehicle>

    <vehicle id="veh74" type="veh_passenger" depart="107.00" departLane="1" arrival="279.00">
        <route edges="141968844#3 141968844#4 141968844#5 141968844#0 141968844#1 141968823#0 141968823#1 141968853#0 141968853#1 141968853#2 141968853#3 141968853#4 46150483#0 46150483#1 206579057 206579058#1 46039050#0 46039050#4 46039050#7 143308542#0 143308542#1 143308542#3 143308542#4 143308542#6 143308542#7 142575691#0 142575691#1 142575691#2 -142575656#14 -142575656#13 143308505#1 143308505#2"/>
    </vehicle>

    <vehicle id="veh67" type="veh_passenger" depart="97.00" departLane="1" arrival="280.00">
        <route edges="26991766#16 -26991766#16 -26991766#15 -26991766#14 -26991766#13 -26991766#12 -142575704#11 -142575704#10 -142575704#8 -142575704#7 -142575704#6 142575656#6 142575656#7 142575656#8 142575656#9 142575656#10 142575656#11 142575656#13 142575656#14 582467484#1 147859763#1 147859763#2 147859763#3 147859763#4 147859763#5 147859763#7 147859763#8 147859763#9 172014854#0 172014854#1 172014854#2 320741895#0 -283317455#1 -190083616#1 -190083616#0 -71960633#2 -71960633#1 143308515 -143308601#0"/>
    </vehicle>

    <vehicle id="veh97" type="veh_passenger" depart="140.00" departLane="1" arrival="280.00">
        <route edges="142575688#3 142575691#2 147859766 147859765#1 147859765#2 147859765#3 147859765#6 147859765#7 172013798#4 172013798#5 172013798#6 38160001#0 318210367#2 318210364#1 318210371#1 318210371#2 318210371#4 578917008 142575667#0 -318210386#2 -81639678#0 -375685717#1 -375685717#0 -22729318#1"/>
    </vehicle>

    <vehicle id="veh10" type="veh_passenger" depart="15.00" departLane="1" arrival="282.00">
        <route edges="314415495#8 -314415495#8 -314415495#7 -314415495#6 -314415495#5 -314415495#4 -314415495#3 -314415495#1 -314415495#0 52243916#1 -43660343#1 -43660343#0 10735918#0 10735918#1 39969574#1 670062920 670062921 670062923 670062922 670062924 22762399#1 22928744#0 22928744#1 278500217#3 278500217#4 -22928688#3 -22928688#2 -22928688#1 -22928688#0 22928674#0 22928674#1"/>
    </vehicle>

    <vehicle id="veh121" type="veh_passenger" depart="175.00" departLane="1" arrival="282.00">
        <route edges="-314415495#17 314415495#17 314415495#19 314415495#20 314415495#21 314415495#22 314415495#24 318210361#0 318210361#1 670062909#1 670062908#1 670062907#1 670062907#2 670062907#3 670062907#4 670062907#5 670062907#6 670062907#9 677933664#5 677933664#7 143308546#1 143308546#2 143308546#3 143308546#4 143308546#5 143308546#9 143308546#10 143308546#11 670062902#2"/>
    </vehicle>

    <vehicle id="veh143" type="veh_passenger" depart="207.00" departLane="1" arrival="284.00">
        <route edges="-38159999#3 38159999#3 38159999#4 142575704#17 142575704#18 142575704#19 142575704#20 142575704#21 318210371#4 578917008 142575667#0 48858191#1"/>
    </vehicle>

    <person id="ped151" type="ped_pedestrian" depart="159.28" arrival="288.00">
        <walk edges="630078162#9 630078162#8 630078162#7 630078162#6 630078162#5 630078162#4 630078162#3 630078162#2 630078162#1 630078162#0 257072321#4 257072321#3 257072321#2"/>
    </person>

    <vehicle id="veh82" type="veh_passenger" depart="119.00" departLane="1" arrival="289.00">
        <route edges="582467484#1 147859763#1 147859763#2 147859763#3 147859763#4 147859763#5 147859763#7 147859763#8 147859763#9 172014854#0 172014854#1 172014854#2 320741895#0 326994261#0 -190083610#1 -190083610#0 180239858#0 180239847 180239842 146511465"/>
    </vehicle>

    <vehicle id="veh87" type="veh_passenger" depart="126.00" departLane="1" departSpeed="8.69" arrival="290.00">
        <route edges="22956997#0 22956997#1 22956997#3 22956997#5 22956997#6 52460499#0 52460499#1 52460499#2 52460499#3 52460499#4 52460499#5 52460499#6 52460499#7 52460499#8 52460499#9 52460499#10 52460499#11 52460499#12 141968913#0 141968913#1 141968844#5 141968844#0 141968844#1 141968823#0 141968823#1 141968853#0 141968853#1 141968853#2 141968853#3 141968853#4 46150483#0 46150483#1 206579057"/>
    </vehicle>

    <vehicle id="veh118" type="veh_passenger" depart="171.00" departLane="1" arrival="293.00">
        <route edges="-142575684#1 -142575684#0 142575685#0 142575685#1 -142575655#13 -142575655#12 -142575655#10 -142575655#7 -142575655#6 -142575655#5 -142575655#2 -142575655#1 -142575700#4 -142575700#3 -142575700#2 -142575700#1 -142575700#0 -334308447#6 -334308447#4 -334308447#1 -334308447#0 -318210394#0 -52080655#2 142575672#0 142575672#3 142575672#4"/>
    </vehicle>

    <vehicle id="veh6" type="veh_passenger" depart="9.00" departLane="1" departSpeed="7.81" arrival="298.00">
        <route edges="-138624452#1 -138624452#0 52460499#0 52460499#1 52460499#2 52460499#3 52460499#4 52460499#5 52460499#6 52460499#7 52460499#8 52460499#9 52460499#10 52460499#11 52460499#12 141968913#0 141968913#1 141968844#5 141968844#0 141968844#1 141968823#0 141968823#1 141968853#0 141968853#1 141968853#2 141968853#3 141968853#4 46150483#0 46150483#1 206579057 206579058#1 -206579062#4 -206579062#0 -206579061 206579064#0 206579064#1 224769559 190083610#0 -190083610#0"/>
    </vehicle>

    <vehicle id="veh158" type="veh_passenger" depart="228.00" departLane="1" arrival="298.00">
        <route edges="142575661#4 -142575661#4 -142575661#3 -142575661#2 -142575661#1 -314415495#17 -314415495#16 -314415495#15 -314415495#14 -314415495#13 -314415495#12 -314415495#11 -314415495#10 -314415495#9 -314415495#8 38159999#0 38159999#1 -38159999#1"/>
    </vehicle>

    <vehicle id="veh111" type="veh_passenger" depart="161.00" departLane="1" departSpeed="5.79" arrival="302.00">
        <route edges="-23925122#2 -23925122#1 -23925122#0 23925119#1 40191606#2 40191606#3 40191606#4 40191606#5 414563781 206889086#1 152839448 541676219 318210389#0 52080655#0 318210394#0 -683972872 -683972873#1 -683972873#0 -683972875#2 -683972875#0 -143308527#6 -143308527#5 -143308527#1 -143308527#0"/>
    </vehicle>

    <vehicle id="veh49" type="veh_passenger" depart="71.00" departLane="1" arrival="311.00">
        <route edges="-137483015#3 -137483015#2 -137483015#0 142575709#1 -314415495#3 -314415495#1 -314415495#0 52243916#1 -43660343#1 -43660343#0 10735918#0 10735918#1 204721579#1 204721579#2 204721579#3 204721579#4 204721579#5 204721579#6 153021549#0 153021549#1 153021549#2 153021549#3 153021549#4 153021549#6 -149611526#1 -149611526#0 -166142951#1 -166142951#0 -137534616#4 -137534616#3 -137534616#2 23788323"/>
    </vehicle>

    <vehicle id="veh50" type="veh_passenger" depart="73.00" departLane="1" arrival="314.00">
        <route edges="204721579#1 204721579#2 204721579#3 204721579#4 204721579#5 204721579#6 153021549#0 153021549#1 153021549#2 153021549#3 153021549#4 153021549#6 40191606#0 40191606#2 40191606#3 40191606#4 40191606#5 414563781 206889086#1 152839448 541676219 318210389#0 670062912#1 81639675#1 81639675#2 81639675#3 81639675#4 670062909#1 670062908#1 670062907#1 670062907#2 670062907#3 670062907#4 670062907#5 670062907#6 670062907#9 143308542#11"/>
    </vehicle>

    <person id="ped14" type="ped_pedestrian" depart="14.77" arrival="318.00">
        <walk edges="677923383#1 579026183#1 143308546#2 143308546#3 143308546#4 81096589#0 143308542#4 128643753#1 32530656#0 32530656#1 26816413#0 -26816413#1 -26816590#0 26816590#1"/>
    </person>

    <vehicle id="veh28" type="veh_passenger" depart="41.00" departLane="1" arrival="319.00">
        <route edges="-152466402#5 152466402#5 152466402#6 152466402#7 152466402#8 152466402#9 152466402#10 152466402#11 152466402#12 152466402#13 152466402#14 152466402#18 152466402#20 22729318#1 375685717#0 375685717#1 382647882 81639678#1 48858191#1 48858191#3 318210383#0 52243916#1 -43660343#1 -43660343#0 10735918#0 10735918#1 27087586#1 27087586#2 318210374 318210375#1 318210375#2 283006416#0 190928927#1 190928927#2 190928927#3 190928927#4 190928927#5 190928927#6 190928927#7 190928927#8 113575152#5 113575152#6 113575152#7 113575152#8 113575152#10 113575152#11 113575152#12 113575152#13 113575152#14"/>
    </vehicle>

    <person id="ped19" type="ped_pedestrian" depart="20.04" arrival="326.00">
        <walk edges="70255226#1 -133858189 -133858466 142575659#0 71028774#1 71028774#0 71028777#4 71028777#2 71028777#1 -558307102#0 -558307102#1 695812741 24733698#1"/>
    </person>

    <vehicle id="veh71" type="veh_passenger" depart="103.00" departLane="1" arrival="327.00">
        <route edges="143308527#7 -683972875#0 -143308527#6 -143308527#5 -143308527#1 -143308527#0 -318210378#0 -318210377#0 -31050360#2 143308552#1 -318210361#3 -318210361#0 -314415495#25 -314415495#22 -314415495#21 -314415495#20 -314415495#19 -314415495#17 -314415495#16 -314415495#15 -314415495#14 -314415495#13 -314415495#12 -314415495#11 -314415495#10 -314415495#9 -314415495#8 -314415495#7 -314415495#6 -314415495#5 -314415495#4 -314415495#3 -314415495#1 -314415495#0 48858192#1 318210388#0 -318210386#2 -81639678#0 -375685717#1 24038573#2"/>
    </vehicle>

    <vehicle id="veh46" type="veh_passenger" depart="67.00" departLane="1" arrival="331.00">