<?xml version="1.0" encoding="UTF-8"?>

<!-- generated on 2023-04-26 16:19:46 by Eclipse SUMO sumo Version 1.17.0
<configuration xmlns:xsi="http://www.w3.org/2001/XMLSchema-instance" xsi:noNamespaceSchemaLocation="http://sumo.dlr.de/xsd/sumoConfiguration.xsd">

    <input>
        <net-file value="C:\erdm_ja\sip-svn-trunk\papers\DLR\SUMO_Conference2023\tutorial\05_runMany.final\osm.net.xml.gz"/>
        <route-files value="C:\erdm_ja\sip-svn-trunk\papers\DLR\SUMO_Conference2023\tutorial\05_runMany.final\bikes.rou.xml"/>
    </input>

    <output>
        <output-prefix value="test2.sumocfg_0\0."/>
        <tripinfo-output value="C:\erdm_ja\sip-svn-trunk\papers\DLR\SUMO_Conference2023\tutorial\05_runMany.final\tripinfos.xml"/>
        <personinfo-output value="C:\erdm_ja\sip-svn-trunk\papers\DLR\SUMO_Conference2023\tutorial\05_runMany.final\personinfos.xml"/>
        <edgedata-output value="C:\erdm_ja\sip-svn-trunk\papers\DLR\SUMO_Conference2023\tutorial\05_runMany.final\edgedata.xml"/>
        <statistic-output value="C:\erdm_ja\sip-svn-trunk\papers\DLR\SUMO_Conference2023\tutorial\05_runMany.final\stats.xml"/>
    </output>

    <processing>
        <lateral-resolution value="0"/>
        <tls.actuated.jam-threshold value="30"/>
    </processing>

    <report>
        <no-step-log value="true"/>
    </report>

    <random_number>
        <seed value="0"/>
    </random_number>

</configuration>
-->

<tripinfos xmlns:xsi="http://www.w3.org/2001/XMLSchema-instance" xsi:noNamespaceSchemaLocation="http://sumo.dlr.de/xsd/tripinfo_file.xsd">
    <tripinfo id="pf_0.0_b0" depart="2.00" departLane="152839448#0_0" departPos="1.70" departSpeed="0.00" departDelay="0.00" arrival="253.00" arrivalLane="128643746#1_0" arrivalPos="15.76" arrivalSpeed="0.17" duration="251.00" routeLength="1138.02" waitingTime="11.00" waitingCount="3" stopTime="0.00" timeLoss="40.31" rerouteNo="1" devices="tripinfo_pf_0.0_b0 person_pf_0.0_b0" vType="DEFAULT_BIKETYPE" speedFactor="0.99" vaporized=""/>
    <tripinfo id="pf_0.1_b0" depart="4.00" departLane="152839448#0_0" departPos="1.70" departSpeed="0.00" departDelay="2.00" arrival="331.00" arrivalLane="128643746#1_0" arrivalPos="15.76" arrivalSpeed="0.08" duration="327.00" routeLength="1138.02" waitingTime="57.00" waitingCount="5" stopTime="0.00" timeLoss="93.05" rerouteNo="1" devices="tripinfo_pf_0.1_b0 person_pf_0.1_b0" vType="DEFAULT_BIKETYPE" speedFactor="0.89" vaporized=""/>
    <tripinfo id="pf_0.2_b0" depart="7.00" departLane="152839448#0_0" departPos="1.70" departSpeed="0.00" departDelay="4.00" arrival="335.00" arrivalLane="128643746#1_0" arrivalPos="15.76" arrivalSpeed="0.12" duration="328.00" routeLength="1138.02" waitingTime="51.00" waitingCount="4" stopTime="0.00" timeLoss="100.65" rerouteNo="1" devices="tripinfo_pf_0.2_b0 person_pf_0.2_b0" vType="DEFAULT_BIKETYPE" speedFactor="0.91" vaporized=""/>
    <tripinfo id="pf_0.4_b0" depart="12.00" departLane="152839448#0_0" departPos="1.70" departSpeed="0.00" departDelay="6.00" arrival="338.00" arrivalLane="128643746#1_0" arrivalPos="15.76" arrivalSpeed="0.20" duration="326.00" routeLength="1138.02" waitingTime="47.00" waitingCount="3" stopTime="0.00" timeLoss="130.32" rerouteNo="1" devices="tripinfo_pf_0.4_b0 person_pf_0.4_b0" vType="DEFAULT_BIKETYPE" speedFactor="1.06" vaporized=""/>
    <tripinfo id="pf_0.3_b0" depart="9.00" departLane="152839448#0_0" departPos="1.70" departSpeed="0.00" departDelay="5.00" arrival="342.00" arrivalLane="128643746#1_0" arrivalPos="15.76" arrivalSpeed="0.10" duration="333.00" routeLength="1138.02" waitingTime="47.00" waitingCount="4" stopTime="0.00" timeLoss="122.26" rerouteNo="1" devices="tripinfo_pf_0.3_b0 person_pf_0.3_b0" vType="DEFAULT_BIKETYPE" speedFactor="0.99" vaporized=""/>
    <tripinfo id="pf_0.5_b0" depart="15.00" departLane="152839448#0_0" departPos="1.70" departSpeed="0.00" departDelay="3.00" arrival="344.00" arrivalLane="128643746#1_0" arrivalPos="15.76" arrivalSpeed="0.91" duration="329.00" routeLength="1138.02" waitingTime="45.00" waitingCount="3" stopTime="0.00" timeLoss="147.12" rerouteNo="1" devices="tripinfo_pf_0.5_b0 person_pf_0.5_b0" vType="DEFAULT_BIKETYPE" speedFactor="1.14" vaporized=""/>
    <tripinfo id="pf_0.7_b0" depart="20.00" departLane="152839448#0_0" departPos="1.70" departSpeed="0.00" departDelay="6.00" arrival="348.00" arrivalLane="128643746#1_0" arrivalPos="15.76" arrivalSpeed="0.08" duration="328.00" routeLength="1138.02" waitingTime="40.00" waitingCount="4" stopTime="0.00" timeLoss="122.50" rerouteNo="1" devices="tripinfo_pf_0.7_b0 person_pf_0.7_b0" vType="DEFAULT_BIKETYPE" speedFactor="1.01" vaporized=""/>
    <tripinfo id="pf_0.8_b0" depart="22.00" departLane="152839448#0_0" departPos="1.70" departSpeed="0.00" departDelay="8.00" arrival="350.00" arrivalLane="128643746#1_0" arrivalPos="15.76" arrivalSpeed="0.95" duration="328.00" routeLength="1138.02" waitingTime="35.00" waitingCount="2" stopTime="0.00" timeLoss="144.27" rerouteNo="1" devices="tripinfo_pf_0.8_b0 person_pf_0.8_b0" vType="DEFAULT_BIKETYPE" speedFactor="1.13" vaporized=""/>
    <tripinfo id="pf_0.6_b0" depart="17.00" departLane="152839448#0_0" departPos="1.70" departSpeed="0.00" departDelay="5.00" arrival="354.00" arrivalLane="128643746#1_0" arrivalPos="15.76" arrivalSpeed="0.10" duration="337.00" routeLength="1138.02" waitingTime="39.00" waitingCount="3" stopTime="0.00" timeLoss="85.78" rerouteNo="1" devices="tripinfo_pf_0.6_b0 person_pf_0.6_b0" vType="DEFAULT_BIKETYPE" speedFactor="0.83" vaporized=""/>
    <tripinfo id="pf_0.9_b0" depart="24.00" departLane="152839448#0_0" departPos="1.70" departSpeed="0.00" departDelay="9.00" arrival="357.00" arrivalLane="128643746#1_0" arrivalPos="15.76" arrivalSpeed="0.16" duration="333.00" routeLength="1138.02" waitingTime="35.00" waitingCount="2" stopTime="0.00" timeLoss="121.09" rerouteNo="1" devices="tripinfo_pf_0.9_b0 person_pf_0.9_b0" vType="DEFAULT_BIKETYPE" speedFactor="0.98" vaporized=""/>
    <tripinfo id="pf_0.10_b0" depart="27.00" departLane="152839448#0_0" departPos="1.70" departSpeed="0.00" departDelay="12.00" arrival="361.00" arrivalLane="128643746#1_0" arrivalPos="15.76" arrivalSpeed="0.07" duration="334.00" routeLength="1138.02" waitingTime="37.00" waitingCount="4" stopTime="0.00" timeLoss="125.72" rerouteNo="1" devices="tripinfo_pf_0.10_b0 person_pf_0.10_b0" vType="DEFAULT_BIKETYPE" speedFactor="1.00" vaporized=""/>
    <tripinfo id="pf_0.13_b0" depart="34.00" departLane="152839448#0_0" departPos="1.70" departSpeed="0.00" departDelay="17.00" arrival="365.00" arrivalLane="128643746#1_0" arrivalPos="15.76" arrivalSpeed="0.12" duration="331.00" routeLength="1138.02" waitingTime="34.00" waitingCount="2" stopTime="0.00" timeLoss="132.82" rerouteNo="1" devices="tripinfo_pf_0.13_b0 person_pf_0.13_b0" vType="DEFAULT_BIKETYPE" speedFactor="1.05" vaporized=""/>
    <tripinfo id="pf_0.11_b0" depart="29.00" departLane="152839448#0_0" departPos="1.70" departSpeed="0.00" departDelay="14.00" arrival="368.00" arrivalLane="128643746#1_0" arrivalPos="15.76" arrivalSpeed="0.15" duration="339.00" routeLength="1138.02" waitingTime="33.00" waitingCount="2" stopTime="0.00" timeLoss="135.33" rerouteNo="1" devices="tripinfo_pf_0.11_b0 person_pf_0.11_b0" vType="DEFAULT_BIKETYPE" speedFactor="1.02" vaporized=""/>
    <tripinfo id="pf_0.12_b0" depart="32.00" departLane="152839448#0_0" departPos="1.70" departSpeed="0.00" departDelay="16.00" arrival="370.00" arrivalLane="128643746#1_0" arrivalPos="15.76" arrivalSpeed="0.48" duration="338.00" routeLength="1138.02" waitingTime="34.00" waitingCount="4" stopTime="0.00" timeLoss="137.29" rerouteNo="1" devices="tripinfo_pf_0.12_b0 person_pf_0.12_b0" vType="DEFAULT_BIKETYPE" speedFactor="1.03" vaporized=""/>
    <tripinfo id="pf_0.14_b0" depart="37.00" departLane="152839448#0_0" departPos="1.70" departSpeed="0.00" departDelay="17.00" arrival="373.00" arrivalLane="128643746#1_0" arrivalPos="15.76" arrivalSpeed="0.07" duration="336.00" routeLength="1138.02" waitingTime="34.00" waitingCount="3" stopTime="0.00" timeLoss="138.18" rerouteNo="1" devices="tripinfo_pf_0.14_b0 person_pf_0.14_b0" vType="DEFAULT_BIKETYPE" speedFactor="1.05" vaporized=""/>
    <tripinfo id="pf_0.15_b0" depart="39.00" departLane="152839448#0_0" departPos="1.70" departSpeed="0.00" departDelay="18.00" arrival="374.00" arrivalLane="128643746#1_0" arrivalPos="15.76" arrivalSpeed="2.36" duration="335.00" routeLength="1138.02" waitingTime="32.00" waitingCount="2" stopTime="0.00" timeLoss="134.22" rerouteNo="1" devices="tripinfo_pf_0.15_b0 person_pf_0.15_b0" vType="DEFAULT_BIKETYPE" speedFactor="1.03" vaporized=""/>
    <tripinfo id="pf_0.16_b0" depart="41.00" departLane="152839448#0_0" departPos="1.70" departSpeed="0.00" departDelay="18.00" arrival="377.00" arrivalLane="128643746#1_0" arrivalPos="15.76" arrivalSpeed="0.11" duration="336.00" routeLength="1138.02" waitingTime="30.00" waitingCount="3" stopTime="0.00" timeLoss="128.29" rerouteNo="1" devices="tripinfo_pf_0.16_b0 person_pf_0.16_b0" vType="DEFAULT_BIKETYPE" speedFactor="1.00" vaporized=""/>
    <tripinfo id="pf_0.17_b0" depart="44.00" departLane="152839448#0_0" departPos="1.70" departSpeed="0.00" departDelay="18.00" arrival="379.00" arrivalLane="128643746#1_0" arrivalPos="15.76" arrivalSpeed="0.28" duration="335.00" routeLength="1138.02" waitingTime="30.00" waitingCount="2" stopTime="0.00" timeLoss="120.53" rerouteNo="1" devices="tripinfo_pf_0.17_b0 person_pf_0.17_b0" vType="DEFAULT_BIKETYPE" speedFactor="0.97" vaporized=""/>
    <tripinfo id="pf_0.18_b0" depart="46.00" departLane="152839448#0_0" departPos="1.70" departSpeed="0.00" departDelay="18.00" arrival="381.00" arrivalLane="128643746#1_0" arrivalPos="15.76" arrivalSpeed="0.52" duration="335.00" routeLength="1138.02" waitingTime="30.00" waitingCount="2" stopTime="0.00" timeLoss="156.67" rerouteNo="1" devices="tripinfo_pf_0.18_b0 person_pf_0.18_b0" vType="DEFAULT_BIKETYPE" speedFactor="1.17" vaporized=""/>
    <tripinfo id="pf_0.19_b0" depart="49.00" departLane="152839448#0_0" departPos="1.70" departSpeed="0.00" departDelay="17.00" arrival="383.00" arrivalLane="128643746#1_0" arrivalPos="15.76" arrivalSpeed="0.08" duration="334.00" routeLength="1138.02" waitingTime="31.00" waitingCount="3" stopTime="0.00" timeLoss="146.89" rerouteNo="1" devices="tripinfo_pf_0.19_b0 person_pf_0.19_b0" vType="DEFAULT_BIKETYPE" speedFactor="1.11" vaporized=""/>
    <tripinfo id="pf_0.20_b0" depart="51.00" departLane="152839448#0_0" departPos="1.70" departSpeed="0.00" departDelay="18.00" arrival="387.00" arrivalLane="128643746#1_0" arrivalPos="15.76" arrivalSpeed="0.16" duration="336.00" routeLength="1138.02" waitingTime="44.00" waitingCount="3" stopTime="0.00" timeLoss="97.41" rerouteNo="1" devices="tripinfo_pf_0.20_b0 person_pf_0.20_b0" vType="DEFAULT_BIKETYPE" speedFactor="0.87" vaporized=""/>
    <tripinfo id="pf_0.21_b0" depart="54.00" departLane="152839448#0_0" departPos="1.70" departSpeed="0.00" departDelay="19.00" arrival="390.00" arrivalLane="128643746#1_0" arrivalPos="15.76" arrivalSpeed="0.08" duration="336.00" routeLength="1138.02" waitingTime="44.00" waitingCount="4" stopTime="0.00" timeLoss="142.10" rerouteNo="1" devices="tripinfo_pf_0.21_b0 person_pf_0.21_b0" vType="DEFAULT_BIKETYPE" speedFactor="1.07" vaporized=""/>
    <tripinfo id="pf_0.22_b0" depart="56.00" departLane="152839448#0_0" departPos="1.70" departSpeed="0.00" departDelay="19.00" arrival="392.00" arrivalLane="128643746#1_0" arrivalPos="15.76" arrivalSpeed="0.35" duration="336.00" routeLength="1138.02" waitingTime="41.00" waitingCount="3" stopTime="0.00" timeLoss="137.20" rerouteNo="1" devices="tripinfo_pf_0.22_b0 person_pf_0.22_b0" vType="DEFAULT_BIKETYPE" speedFactor="1.05" vaporized=""/>
    <tripinfo id="pf_0.23_b0" depart="58.00" departLane="152839448#0_0" departPos="1.70" departSpeed="0.00" departDelay="21.00" arrival="394.00" arrivalLane="128643746#1_0" arrivalPos="15.76" arrivalSpeed="0.28" duration="336.00" routeLength="1138.02" waitingTime="45.00" waitingCount="4" stopTime="0.00" timeLoss="173.22" rerouteNo="1" devices="tripinfo_pf_0.23_b0 person_pf_0.23_b0" vType="DEFAULT_BIKETYPE" speedFactor="1.28" vaporized=""/>
    <tripinfo id="pf_0.24_b0" depart="61.00" departLane="152839448#0_0" departPos="1.70" departSpeed="0.00" departDelay="19.00" arrival="397.00" arrivalLane="128643746#1_0" arrivalPos="15.76" arrivalSpeed="0.11" duration="336.00" routeLength="1138.02" waitingTime="42.00" waitingCount="4" stopTime="0.00" timeLoss="173.25" rerouteNo="1" devices="tripinfo_pf_0.24_b0 person_pf_0.24_b0" vType="DEFAULT_BIKETYPE" speedFactor="1.28" vaporized=""/>
    <tripinfo id="pf_0.25_b0" depart="63.00" departLane="152839448#0_0" departPos="1.70" departSpeed="0.00" departDelay="20.00" arrival="400.00" arrivalLane="128643746#1_0" arrivalPos="15.76" arrivalSpeed="0.12" duration="337.00" routeLength="1138.02" waitingTime="37.00" waitingCount="3" stopTime="0.00" timeLoss="107.52" rerouteNo="1" devices="tripinfo_pf_0.25_b0 person_pf_0.25_b0" vType="DEFAULT_BIKETYPE" speedFactor="0.91" vaporized=""/>
    <tripinfo id="pf_0.26_b0" depart="66.00" departLane="152839448#0_0" departPos="1.70" departSpeed="0.00" departDelay="20.00" arrival="402.00" arrivalLane="128643746#1_0" arrivalPos="15.76" arrivalSpeed="0.37" duration="336.00" routeLength="1138.02" waitingTime="35.00" waitingCount="3" stopTime="0.00" timeLoss="135.98" rerouteNo="1" devices="tripinfo_pf_0.26_b0 person_pf_0.26_b0" vType="DEFAULT_BIKETYPE" speedFactor="1.04" vaporized=""/>
    <tripinfo id="pf_0.27_b0" depart="68.00" departLane="152839448#0_0" departPos="1.70" departSpeed="0.00" departDelay="21.00" arrival="404.00" arrivalLane="128643746#1_0" arrivalPos="15.76" arrivalSpeed="0.25" duration="336.00" routeLength="1138.02" waitingTime="35.00" waitingCount="4" stopTime="0.00" timeLoss="146.24" rerouteNo="1" devices="tripinfo_pf_0.27_b0 person_pf_0.27_b0" vType="DEFAULT_BIKETYPE" speedFactor="1.09" vaporized=""/>
    <tripinfo id="pf_0.28_b0" depart="70.00" departLane="152839448#0_0" departPos="1.70" departSpeed="0.00" departDelay="21.00" arrival="406.00" arrivalLane="128643746#1_0" arrivalPos="15.76" arrivalSpeed="0.51" duration="336.00" routeLength="1138.02" waitingTime="34.00" waitingCount="4" stopTime="0.00" timeLoss="141.75" rerouteNo="1" devices="tripinfo_pf_0.28_b0 person_pf_0.28_b0" vType="DEFAULT_BIKETYPE" speedFactor="1.07" vaporized=""/>
    <tripinfo id="pf_0.29_b0" depart="73.00" departLane="152839448#0_0" departPos="1.70" departSpeed="0.00" departDelay="18.00" arrival="409.00" arrivalLane="128643746#1_0" arrivalPos="15.76" arrivalSpeed="0.53" duration="336.00" routeLength="1138.02" waitingTime="33.00" waitingCount="3" stopTime="0.00" timeLoss="123.36" rerouteNo="1" devices="tripinfo_pf_0.29_b0 person_pf_0.29_b0" vType="DEFAULT_BIKETYPE" speedFactor="0.98" vaporized=""/>
    <tripinfo id="pf_0.30_b0" depart="76.00" departLane="152839448#0_0" departPos="1.70" departSpeed="0.00" departDelay="20.00" arrival="413.00" arrivalLane="128643746#1_0" arrivalPos="15.76" arrivalSpeed="0.09" duration="337.00" routeLength="1138.02" waitingTime="39.00" waitingCount="3" stopTime="0.00" timeLoss="131.81" rerouteNo="1" devices="tripinfo_pf_0.30_b0 person_pf_0.30_b0" vType="DEFAULT_BIKETYPE" speedFactor="1.01" vaporized=""/>
    <tripinfo id="pf_0.31_b0" depart="80.00" departLane="152839448#0_0" departPos="1.70" departSpeed="0.00" departDelay="24.00" arrival="415.00" arrivalLane="128643746#1_0" arrivalPos="15.76" arrivalSpeed="0.84" duration="335.00" routeLength="1138.02" waitingTime="36.00" waitingCount="2" stopTime="0.00" timeLoss="98.44" rerouteNo="1" devices="tripinfo_pf_0.31_b0 person_pf_0.31_b0" vType="DEFAULT_BIKETYPE" speedFactor="0.88" vaporized=""/>
    <tripinfo id="pf_0.32_b0" depart="82.00" departLane="152839448#0_0" departPos="1.70" departSpeed="0.00" departDelay="23.00" arrival="417.00" arrivalLane="128643746#1_0" arrivalPos="15.76" arrivalSpeed="1.08" duration="335.00" routeLength="1138.02" waitingTime="35.00" waitingCount="2" stopTime="0.00" timeLoss="132.90" rerouteNo="1" devices="tripinfo_pf_0.32_b0 person_pf_0.32_b0" vType="DEFAULT_BIKETYPE" speedFactor="1.03" vaporized=""/>
    <tripinfo id="pf_0.33_b0" depart="84.00" departLane="152839448#0_0" departPos="1.70" departSpeed="0.00" departDelay="23.00" arrival="419.00" arrivalLane="128643746#1_0" arrivalPos="15.76" arrivalSpeed="1.73" duration="335.00" routeLength="1138.02" waitingTime="35.00" waitingCount="3" stopTime="0.00" timeLoss="169.27" rerouteNo="1" devices="tripinfo_pf_0.33_b0 person_pf_0.33_b0" vType="DEFAULT_BIKETYPE" speedFactor="1.25" vaporized=""/>
    <tripinfo id="pf_0.34_b0" depart="87.00" departLane="152839448#0_0" departPos="1.70" departSpeed="0.00" departDelay="23.00" arrival="421.00" arrivalLane="128643746#1_0" arrivalPos="15.76" arrivalSpeed="1.43" duration="334.00" routeLength="1138.02" waitingTime="33.00" waitingCount="1" stopTime="0.00" timeLoss="137.26" rerouteNo="1" devices="tripinfo_pf_0.34_b0 person_pf_0.34_b0" vType="DEFAULT_BIKETYPE" speedFactor="1.06" vaporized=""/>
    <tripinfo id="pf_0.35_b0" depart="89.00" departLane="152839448#0_0" departPos="1.70" departSpeed="0.00" departDelay="24.00" arrival="425.00" arrivalLane="128643746#1_0" arrivalPos="15.76" arrivalSpeed="0.06" duration="336.00" routeLength="1138.02" waitingTime="37.00" waitingCount="5" stopTime="0.00" timeLoss="104.23" rerouteNo="1" devices="tripinfo_pf_0.35_b0 person_pf_0.35_b0" vType="DEFAULT_BIKETYPE" speedFactor="0.90" vaporized=""/>
    <tripinfo id="pf_0.36_b0" depart="92.00" departLane="152839448#0_0" departPos="1.70" departSpeed="0.00" departDelay="23.00" arrival="429.00" arrivalLane="128643746#1_0" arrivalPos="15.76" arrivalSpeed="0.10" duration="337.00" routeLength="1138.02" waitingTime="40.00" waitingCount="5" stopTime="0.00" timeLoss="119.88" rerouteNo="1" devices="tripinfo_pf_0.36_b0 person_pf_0.36_b0" vType="DEFAULT_BIKETYPE" speedFactor="0.96" vaporized=""/>
    <tripinfo id="pf_0.37_b0" depart="94.00" departLane="152839448#0_0" departPos="1.70" departSpeed="0.00" departDelay="25.00" arrival="431.00" arrivalLane="128643746#1_0" arrivalPos="15.76" arrivalSpeed="0.78" duration="337.00" routeLength="1138.02" waitingTime="37.00" waitingCount="5" stopTime="0.00" timeLoss="130.17" rerouteNo="1" devices="tripinfo_pf_0.37_b0 person_pf_0.37_b0" vType="DEFAULT_BIKETYPE" speedFactor="1.00" vaporized=""/>
    <tripinfo id="pf_0.39_b0" depart="99.00" departLane="152839448#0_0" departPos="1.70" departSpeed="0.00" departDelay="29.00" arrival="435.00" arrivalLane="128643746#1_0" arrivalPos="15.76" arrivalSpeed="0.12" duration="336.00" routeLength="1138.02" waitingTime="32.00" waitingCount="4" stopTime="0.00" timeLoss="124.02" rerouteNo="1" devices="tripinfo_pf_0.39_b0 person_pf_0.39_b0" vType="DEFAULT_BIKETYPE" speedFactor="0.98" vaporized=""/>
    <tripinfo id="pf_0.40_b0" depart="102.00" departLane="152839448#0_0" departPos="1.70" departSpeed="0.00" departDelay="32.00" arrival="437.00" arrivalLane="128643746#1_0" arrivalPos="15.76" arrivalSpeed="0.78" duration="335.00" routeLength="1138.02" waitingTime="26.00" waitingCount="3" stopTime="0.00" timeLoss="103.76" rerouteNo="1" devices="tripinfo_pf_0.40_b0 person_pf_0.40_b0" vType="DEFAULT_BIKETYPE" speedFactor="0.90" vaporized=""/>
    <tripinfo id="pf_0.38_b0" depart="97.00" departLane="152839448#0_0" departPos="1.70" departSpeed="0.00" departDelay="27.00" arrival="441.00" arrivalLane="128643746#1_0" arrivalPos="15.76" arrivalSpeed="0.14" duration="344.00" routeLength="1138.02" waitingTime="29.00" waitingCount="3" stopTime="0.00" timeLoss="145.78" rerouteNo="1" devices="tripinfo_pf_0.38_b0 person_pf_0.38_b0" vType="DEFAULT_BIKETYPE" speedFactor="1.05" vaporized=""/>
    <tripinfo id="pf_0.41_b0" depart="104.00" departLane="152839448#0_0" departPos="1.70" departSpeed="0.00" departDelay="32.00" arrival="444.00" arrivalLane="128643746#1_0" arrivalPos="15.76" arrivalSpeed="0.12" duration="340.00" routeLength="1138.02" waitingTime="27.00" waitingCount="4" stopTime="0.00" timeLoss="159.35" rerouteNo="1" devices="tripinfo_pf_0.41_b0 person_pf_0.41_b0" vType="DEFAULT_BIKETYPE" speedFactor="1.15" vaporized=""/>
    <tripinfo id="pf_0.42_b0" depart="107.00" departLane="152839448#0_0" departPos="1.70" departSpeed="0.00" departDelay="32.00" arrival="447.00" arrivalLane="128643746#1_0" arrivalPos="15.76" arrivalSpeed="0.31" duration="340.00" routeLength="1138.02" waitingTime="23.00" waitingCount="4" stopTime="0.00" timeLoss="132.80" rerouteNo="1" devices="tripinfo_pf_0.42_b0 person_pf_0.42_b0" vType="DEFAULT_BIKETYPE" speedFactor="1.00" vaporized=""/>
    <tripinfo id="pf_0.46_b0" depart="117.00" departLane="152839448#0_0" departPos="1.70" departSpeed="0.00" departDelay="37.00" arrival="450.00" arrivalLane="128643746#1_0" arrivalPos="15.76" arrivalSpeed="0.41" duration="333.00" routeLength="1138.02" waitingTime="16.00" waitingCount="3" stopTime="0.00" timeLoss="138.87" rerouteNo="1" devices="tripinfo_pf_0.46_b0 person_pf_0.46_b0" vType="DEFAULT_BIKETYPE" speedFactor="1.07" vaporized=""/>
    <tripinfo id="pf_0.43_b0" depart="109.00" departLane="152839448#0_0" departPos="1.70" departSpeed="0.00" departDelay="33.00" arrival="453.00" arrivalLane="128643746#1_0" arrivalPos="15.76" arrivalSpeed="0.27" duration="344.00" routeLength="1138.02" waitingTime="19.00" waitingCount="3" stopTime="0.00" timeLoss="111.68" rerouteNo="1" devices="tripinfo_pf_0.43_b0 person_pf_0.43_b0" vType="DEFAULT_BIKETYPE" speedFactor="0.89" vaporized=""/>
    <tripinfo id="pf_0.44_b0" depart="112.00" departLane="152839448#0_0" departPos="1.70" departSpeed="0.00" departDelay="34.00" arrival="456.00" arrivalLane="128643746#1_0" arrivalPos="15.76" arrivalSpeed="0.21" duration="344.00" routeLength="1138.02" waitingTime="17.00" waitingCount="2" stopTime="0.00" timeLoss="120.47" rerouteNo="1" devices="tripinfo_pf_0.44_b0 person_pf_0.44_b0" vType="DEFAULT_BIKETYPE" speedFactor="0.93" vaporized=""/>
    <tripinfo id="pf_0.45_b0" depart="114.00" departLane="152839448#0_0" departPos="1.70" departSpeed="0.00" departDelay="36.00" arrival="458.00" arrivalLane="128643746#1_0" arrivalPos="15.76" arrivalSpeed="0.39" duration="344.00" routeLength="1138.02" waitingTime="19.00" waitingCount="3" stopTime="0.00" timeLoss="146.52" rerouteNo="1" devices="tripinfo_pf_0.45_b0 person_pf_0.45_b0" vType="DEFAULT_BIKETYPE" speedFactor="1.05" vaporized=""/>
    <tripinfo id="pf_0.47_b0" depart="119.00" departLane="152839448#0_0" departPos="1.70" departSpeed="0.00" departDelay="38.00" arrival="460.00" arrivalLane="128643746#1_0" arrivalPos="15.76" arrivalSpeed="0.21" duration="341.00" routeLength="1138.02" waitingTime="15.00" waitingCount="3" stopTime="0.00" timeLoss="145.05" rerouteNo="1" devices="tripinfo_pf_0.47_b0 person_pf_0.47_b0" vType="DEFAULT_BIKETYPE" speedFactor="1.06" vaporized=""/>
    <tripinfo id="pf_0.48_b0" depart="122.00" departLane="152839448#0_0" departPos="1.70" departSpeed="0.00" departDelay="36.00" arrival="462.00" arrivalLane="128643746#1_0" arrivalPos="15.76" arrivalSpeed="0.46" duration="340.00" routeLength="1138.02" waitingTime="30.00" waitingCount="3" stopTime="0.00" timeLoss="143.20" rerouteNo="1" devices="tripinfo_pf_0.48_b0 person_pf_0.48_b0" vType="DEFAULT_BIKETYPE" speedFactor="1.06" vaporized=""/>
    <tripinfo id="pf_0.49_b0" depart="124.00" departLane="152839448#0_0" departPos="1.70" departSpeed="0.00" departDelay="33.00" arrival="465.00" arrivalLane="128643746#1_0" arrivalPos="15.76" arrivalSpeed="0.19" duration="341.00" routeLength="1138.02" waitingTime="65.00" waitingCount="5" stopTime="0.00" timeLoss="116.41" rerouteNo="1" devices="tripinfo_pf_0.49_b0 person_pf_0.49_b0" vType="DEFAULT_BIKETYPE" speedFactor="0.92" vaporized=""/>
    <tripinfo id="pf_0.51_b0" depart="129.00" departLane="152839448#0_0" departPos="1.70" departSpeed="0.00" departDelay="36.00" arrival="467.00" arrivalLane="128643746#1_0" arrivalPos="15.76" arrivalSpeed="0.46" duration="338.00" routeLength="1138.02" waitingTime="58.00" waitingCount="6" stopTime="0.00" timeLoss="165.73" rerouteNo="1" devices="tripinfo_pf_0.51_b0 person_pf_0.51_b0" vType="DEFAULT_BIKETYPE" speedFactor="1.21" vaporized=""/>
    <tripinfo id="pf_0.50_b0" depart="127.00" departLane="152839448#0_0" departPos="1.70" departSpeed="0.00" departDelay="34.00" arrival="474.00" arrivalLane="128643746#1_0" arrivalPos="15.76" arrivalSpeed="1.11" duration="347.00" routeLength="1138.02" waitingTime="56.00" waitingCount="5" stopTime="0.00" timeLoss="103.80" rerouteNo="1" devices="tripinfo_pf_0.50_b0 person_pf_0.50_b0" vType="DEFAULT_BIKETYPE" speedFactor="0.85" vaporized=""/>
    <tripinfo id="pf_0.52_b0" depart="132.00" departLane="152839448#0_0" departPos="1.70" departSpeed="0.00" departDelay="35.00" arrival="477.00" arrivalLane="128643746#1_0" arrivalPos="15.76" arrivalSpeed="0.09" duration="345.00" routeLength="1138.02" waitingTime="54.00" waitingCount="6" stopTime="0.00" timeLoss="145.79" rerouteNo="1" devices="tripinfo_pf_0.52_b0 person_pf_0.52_b0" vType="DEFAULT_BIKETYPE" speedFactor="1.04" vaporized=""/>
    <tripinfo id="pf_0.54_b0" depart="141.00" departLane="152839448#0_0" departPos="1.70" departSpeed="0.00" departDelay="32.00" arrival="480.00" arrivalLane="128643746#1_0" arrivalPos="15.76" arrivalSpeed="0.17" duration="339.00" routeLength="1138.02" waitingTime="47.00" waitingCount="4" stopTime="0.00" timeLoss="130.64" rerouteNo="1" devices="tripinfo_pf_0.54_b0 person_pf_0.54_b0" vType="DEFAULT_BIKETYPE" speedFactor="1.00" vaporized=""/>
    <tripinfo id="pf_0.53_b0" depart="138.00" departLane="152839448#0_0" departPos="1.70" departSpeed="0.00" departDelay="40.00" arrival="482.00" arrivalLane="128643746#1_0" arrivalPos="15.76" arrivalSpeed="1.10" duration="344.00" routeLength="1138.02" waitingTime="49.00" waitingCount="4" stopTime="0.00" timeLoss="141.19" rerouteNo="1" devices="tripinfo_pf_0.53_b0 person_pf_0.53_b0" vType="DEFAULT_BIKETYPE" speedFactor="1.02" vaporized=""/>
    <tripinfo id="pf_0.55_b0" depart="143.00" departLane="152839448#0_0" departPos="1.70" departSpeed="0.00" departDelay="33.00" arrival="485.00" arrivalLane="128643746#1_0" arrivalPos="15.76" arrivalSpeed="0.34" duration="342.00" routeLength="1138.02" waitingTime="46.00" waitingCount="4" stopTime="0.00" timeLoss="113.80" rerouteNo="1" devices="tripinfo_pf_0.55_b0 person_pf_0.55_b0" vType="DEFAULT_BIKETYPE" speedFactor="0.91" vaporized=""/>
    <tripinfo id="pf_0.56_b0" depart="146.00" departLane="152839448#0_0" departPos="1.70" departSpeed="0.00" departDelay="36.00" arrival="487.00" arrivalLane="128643746#1_0" arrivalPos="15.76" arrivalSpeed="0.35" duration="341.00" routeLength="1138.02" waitingTime="46.00" waitingCount="4" stopTime="0.00" timeLoss="137.78" rerouteNo="1" devices="tripinfo_pf_0.56_b0 person_pf_0.56_b0" vType="DEFAULT_BIKETYPE" speedFactor="1.02" vaporized=""/>
    <tripinfo id="pf_0.57_b0" depart="148.00" departLane="152839448#0_0" departPos="1.70" departSpeed="0.00" departDelay="37.00" arrival="490.00" arrivalLane="128643746#1_0" arrivalPos="15.76" arrivalSpeed="0.14" duration="342.00" routeLength="1138.02" waitingTime="45.00" waitingCount="4" stopTime="0.00" timeLoss="120.26" rerouteNo="1" devices="tripinfo_pf_0.57_b0 person_pf_0.57_b0" vType="DEFAULT_BIKETYPE" speedFactor="0.94" vaporized=""/>
    <tripinfo id="pf_0.58_b0" depart="150.00" departLane="152839448#0_0" departPos="1.70" departSpeed="0.00" departDelay="38.00" arrival="493.00" arrivalLane="128643746#1_0" arrivalPos="15.76" arrivalSpeed="0.41" duration="343.00" routeLength="1138.02" waitingTime="43.00" waitingCount="3" stopTime="0.00" timeLoss="151.79" rerouteNo="1" devices="tripinfo_pf_0.58_b0 person_pf_0.58_b0" vType="DEFAULT_BIKETYPE" speedFactor="1.09" vaporized=""/>
    <tripinfo id="pf_0.61_b0" depart="157.00" departLane="152839448#0_0" departPos="1.70" departSpeed="0.00" departDelay="42.00" arrival="496.00" arrivalLane="128643746#1_0" arrivalPos="15.76" arrivalSpeed="0.15" duration="339.00" routeLength="1138.02" waitingTime="44.00" waitingCount="4" stopTime="0.00" timeLoss="129.62" rerouteNo="1" devices="tripinfo_pf_0.61_b0 person_pf_0.61_b0" vType="DEFAULT_BIKETYPE" speedFactor="0.99" vaporized=""/>
    <tripinfo id="pf_0.59_b0" depart="153.00" departLane="152839448#0_0" departPos="1.70" departSpeed="0.00" departDelay="40.00" arrival="499.00" arrivalLane="128643746#1_0" arrivalPos="15.76" arrivalSpeed="0.27" duration="346.00" routeLength="1138.02" waitingTime="44.00" waitingCount="4" stopTime="0.00" timeLoss="120.14" rerouteNo="1" devices="tripinfo_pf_0.59_b0 person_pf_0.59_b0" vType="DEFAULT_BIKETYPE" speedFactor="0.92" vaporized=""/>
    <tripinfo id="pf_0.60_b0" depart="155.00" departLane="152839448#0_0" departPos="1.70" departSpeed="0.00" departDelay="42.00" arrival="503.00" arrivalLane="128643746#1_0" arrivalPos="15.76" arrivalSpeed="0.12" duration="348.00" routeLength="1138.02" waitingTime="44.00" waitingCount="5" stopTime="0.00" timeLoss="150.76" rerouteNo="1" devices="tripinfo_pf_0.60_b0 person_pf_0.60_b0" vType="DEFAULT_BIKETYPE" speedFactor="1.05" vaporized=""/>
    <tripinfo id="pf_0.62_b0" depart="160.00" departLane="152839448#0_0" departPos="1.70" departSpeed="0.00" departDelay="43.00" arrival="506.00" arrivalLane="128643746#1_0" arrivalPos="15.76" arrivalSpeed="0.37" duration="346.00" routeLength="1138.02" waitingTime="42.00" waitingCount="5" stopTime="0.00" timeLoss="130.47" rerouteNo="1" devices="tripinfo_pf_0.62_b0 person_pf_0.62_b0" vType="DEFAULT_BIKETYPE" speedFactor="0.96" vaporized=""/>
    <tripinfo id="pf_0.63_b0" depart="163.00" departLane="152839448#0_0" departPos="1.70" departSpeed="0.00" departDelay="44.00" arrival="509.00" arrivalLane="128643746#1_0" arrivalPos="15.76" arrivalSpeed="0.32" duration="346.00" routeLength="1138.02" waitingTime="45.00" waitingCount="3" stopTime="0.00" timeLoss="147.35" rerouteNo="1" devices="tripinfo_pf_0.63_b0 person_pf_0.63_b0" vType="DEFAULT_BIKETYPE" speedFactor="1.05" vaporized=""/>