<?xml version="1.0" encoding="UTF-8"?>

<!-- generated on 2023-04-26 16:19:46 by Eclipse SUMO sumo Version 1.17.0
<configuration xmlns:xsi="http://www.w3.org/2001/XMLSchema-instance" xsi:noNamespaceSchemaLocation="http://sumo.dlr.de/xsd/sumoConfiguration.xsd">

    <input>
        <net-file value="C:\erdm_ja\sip-svn-trunk\papers\DLR\SUMO_Conference2023\tutorial\05_runMany.final\osm.net.xml.gz"/>
        <route-files value="C:\erdm_ja\sip-svn-trunk\papers\DLR\SUMO_Conference2023\tutorial\05_runMany.final\bikes.rou.xml"/>
    </input>

    <output>
        <output-prefix value="test2.sumocfg_0\1."/>
        <tripinfo-output value="C:\erdm_ja\sip-svn-trunk\papers\DLR\SUMO_Conference2023\tutorial\05_runMany.final\tripinfos.xml"/>
        <personinfo-output value="C:\erdm_ja\sip-svn-trunk\papers\DLR\SUMO_Conference2023\tutorial\05_runMany.final\personinfos.xml"/>
        <edgedata-output value="C:\erdm_ja\sip-svn-trunk\papers\DLR\SUMO_Conference2023\tutorial\05_runMany.final\edgedata.xml"/>
        <statistic-output value="C:\erdm_ja\sip-svn-trunk\papers\DLR\SUMO_Conference2023\tutorial\05_runMany.final\stats.xml"/>
    </output>

    <processing>
        <lateral-resolution value="0"/>
        <tls.actuated.jam-threshold value="30"/>
    </processing>

    <report>
        <no-step-log value="true"/>
    </report>

    <random_number>
        <seed value="1"/>
    </random_number>

</configuration>
-->

<tripinfos xmlns:xsi="http://www.w3.org/2001/XMLSchema-instance" xsi:noNamespaceSchemaLocation="http://sumo.dlr.de/xsd/tripinfo_file.xsd">
    <tripinfo id="pf_0.1_b0" depart="4.00" departLane="152839448#0_0" departPos="1.70" departSpeed="0.00" departDelay="2.00" arrival="276.00" arrivalLane="128643746#1_0" arrivalPos="15.76" arrivalSpeed="0.31" duration="272.00" routeLength="1138.02" waitingTime="40.00" waitingCount="4" stopTime="0.00" timeLoss="100.89" rerouteNo="1" devices="tripinfo_pf_0.1_b0 person_pf_0.1_b0" vType="DEFAULT_BIKETYPE" speedFactor="1.21" vaporized=""/>
    <tripinfo id="pf_0.2_b0" depart="7.00" departLane="152839448#0_0" departPos="1.70" departSpeed="0.00" departDelay="0.00" arrival="279.00" arrivalLane="128643746#1_0" arrivalPos="15.76" arrivalSpeed="0.32" duration="272.00" routeLength="1138.02" waitingTime="36.00" waitingCount="2" stopTime="0.00" timeLoss="97.65" rerouteNo="1" devices="tripinfo_pf_0.2_b0 person_pf_0.2_b0" vType="DEFAULT_BIKETYPE" speedFactor="1.19" vaporized=""/>
    <tripinfo id="pf_0.0_b0" depart="2.00" departLane="152839448#0_0" departPos="1.70" departSpeed="0.00" departDelay="0.00" arrival="314.00" arrivalLane="128643746#1_0" arrivalPos="15.76" arrivalSpeed="0.10" duration="312.00" routeLength="1138.02" waitingTime="42.00" waitingCount="4" stopTime="0.00" timeLoss="76.20" rerouteNo="1" devices="tripinfo_pf_0.0_b0 person_pf_0.0_b0" vType="DEFAULT_BIKETYPE" speedFactor="0.88" vaporized=""/>
    <tripinfo id="pf_0.3_b0" depart="10.00" departLane="152839448#0_0" departPos="1.70" departSpeed="0.00" departDelay="1.00" arrival="316.00" arrivalLane="128643746#1_0" arrivalPos="15.76" arrivalSpeed="1.02" duration="306.00" routeLength="1138.02" waitingTime="35.00" waitingCount="2" stopTime="0.00" timeLoss="96.98" rerouteNo="1" devices="tripinfo_pf_0.3_b0 person_pf_0.3_b0" vType="DEFAULT_BIKETYPE" speedFactor="0.99" vaporized=""/>
    <tripinfo id="pf_0.5_b0" depart="15.00" departLane="152839448#0_0" departPos="1.70" departSpeed="0.00" departDelay="4.00" arrival="320.00" arrivalLane="128643746#1_0" arrivalPos="15.76" arrivalSpeed="0.14" duration="305.00" routeLength="1138.02" waitingTime="33.00" waitingCount="1" stopTime="0.00" timeLoss="100.22" rerouteNo="1" devices="tripinfo_pf_0.5_b0 person_pf_0.5_b0" vType="DEFAULT_BIKETYPE" speedFactor="1.01" vaporized=""/>
    <tripinfo id="pf_0.4_b0" depart="13.00" departLane="152839448#0_0" departPos="1.70" departSpeed="0.00" departDelay="2.00" arrival="323.00" arrivalLane="128643746#1_0" arrivalPos="15.76" arrivalSpeed="0.13" duration="310.00" routeLength="1138.02" waitingTime="34.00" waitingCount="2" stopTime="0.00" timeLoss="81.60" rerouteNo="1" devices="tripinfo_pf_0.4_b0 person_pf_0.4_b0" vType="DEFAULT_BIKETYPE" speedFactor="0.91" vaporized=""/>
    <tripinfo id="pf_0.7_b0" depart="20.00" departLane="152839448#0_0" departPos="1.70" departSpeed="0.00" departDelay="7.00" arrival="326.00" arrivalLane="128643746#1_0" arrivalPos="15.76" arrivalSpeed="0.24" duration="306.00" routeLength="1138.02" waitingTime="31.00" waitingCount="1" stopTime="0.00" timeLoss="127.77" rerouteNo="1" devices="tripinfo_pf_0.7_b0 person_pf_0.7_b0" vType="DEFAULT_BIKETYPE" speedFactor="1.17" vaporized=""/>
    <tripinfo id="pf_0.9_b0" depart="25.00" departLane="152839448#0_0" departPos="1.70" departSpeed="0.00" departDelay="4.00" arrival="330.00" arrivalLane="128643746#1_0" arrivalPos="15.76" arrivalSpeed="0.07" duration="305.00" routeLength="1138.02" waitingTime="32.00" waitingCount="2" stopTime="0.00" timeLoss="107.50" rerouteNo="1" devices="tripinfo_pf_0.9_b0 person_pf_0.9_b0" vType="DEFAULT_BIKETYPE" speedFactor="1.05" vaporized=""/>
    <tripinfo id="pf_0.6_b0" depart="17.00" departLane="152839448#0_0" departPos="1.70" departSpeed="0.00" departDelay="5.00" arrival="332.00" arrivalLane="128643746#1_0" arrivalPos="15.76" arrivalSpeed="0.88" duration="315.00" routeLength="1138.02" waitingTime="31.00" waitingCount="1" stopTime="0.00" timeLoss="122.99" rerouteNo="1" devices="tripinfo_pf_0.6_b0 person_pf_0.6_b0" vType="DEFAULT_BIKETYPE" speedFactor="1.08" vaporized=""/>
    <tripinfo id="pf_0.8_b0" depart="22.00" departLane="152839448#0_0" departPos="1.70" departSpeed="0.00" departDelay="1.00" arrival="334.00" arrivalLane="128643746#1_0" arrivalPos="15.76" arrivalSpeed="1.31" duration="312.00" routeLength="1138.02" waitingTime="31.00" waitingCount="1" stopTime="0.00" timeLoss="132.95" rerouteNo="1" devices="tripinfo_pf_0.8_b0 person_pf_0.8_b0" vType="DEFAULT_BIKETYPE" speedFactor="1.16" vaporized=""/>
    <tripinfo id="pf_0.10_b0" depart="27.00" departLane="152839448#0_0" departPos="1.70" departSpeed="0.00" departDelay="5.00" arrival="338.00" arrivalLane="128643746#1_0" arrivalPos="15.76" arrivalSpeed="0.11" duration="311.00" routeLength="1138.02" waitingTime="33.00" waitingCount="2" stopTime="0.00" timeLoss="86.46" rerouteNo="1" devices="tripinfo_pf_0.10_b0 person_pf_0.10_b0" vType="DEFAULT_BIKETYPE" speedFactor="0.93" vaporized=""/>
    <tripinfo id="pf_0.11_b0" depart="29.00" departLane="152839448#0_0" departPos="1.70" departSpeed="0.00" departDelay="7.00" arrival="341.00" arrivalLane="128643746#1_0" arrivalPos="15.76" arrivalSpeed="0.27" duration="312.00" routeLength="1138.02" waitingTime="31.00" waitingCount="1" stopTime="0.00" timeLoss="94.01" rerouteNo="1" devices="tripinfo_pf_0.11_b0 person_pf_0.11_b0" vType="DEFAULT_BIKETYPE" speedFactor="0.95" vaporized=""/>
    <tripinfo id="pf_0.12_b0" depart="31.00" departLane="152839448#0_0" departPos="1.70" departSpeed="0.00" departDelay="8.00" arrival="345.00" arrivalLane="128643746#1_0" arrivalPos="15.76" arrivalSpeed="0.14" duration="314.00" routeLength="1138.02" waitingTime="49.00" waitingCount="3" stopTime="0.00" timeLoss="138.05" rerouteNo="1" devices="tripinfo_pf_0.12_b0 person_pf_0.12_b0" vType="DEFAULT_BIKETYPE" speedFactor="1.18" vaporized=""/>
    <tripinfo id="pf_0.13_b0" depart="34.00" departLane="152839448#0_0" departPos="1.70" departSpeed="0.00" departDelay="7.00" arrival="355.00" arrivalLane="128643746#1_0" arrivalPos="15.76" arrivalSpeed="0.11" duration="321.00" routeLength="1138.02" waitingTime="49.00" waitingCount="3" stopTime="0.00" timeLoss="80.64" rerouteNo="1" devices="tripinfo_pf_0.13_b0 person_pf_0.13_b0" vType="DEFAULT_BIKETYPE" speedFactor="0.86" vaporized=""/>
    <tripinfo id="pf_0.15_b0" depart="38.00" departLane="152839448#0_0" departPos="1.70" departSpeed="0.00" departDelay="5.00" arrival="357.00" arrivalLane="128643746#1_0" arrivalPos="15.76" arrivalSpeed="0.40" duration="319.00" routeLength="1138.02" waitingTime="45.00" waitingCount="3" stopTime="0.00" timeLoss="125.33" rerouteNo="1" devices="tripinfo_pf_0.15_b0 person_pf_0.15_b0" vType="DEFAULT_BIKETYPE" speedFactor="1.07" vaporized=""/>
    <tripinfo id="pf_0.14_b0" depart="36.00" departLane="152839448#0_0" departPos="1.70" departSpeed="0.00" departDelay="8.00" arrival="359.00" arrivalLane="128643746#1_0" arrivalPos="15.76" arrivalSpeed="0.99" duration="323.00" routeLength="1138.02" waitingTime="48.00" waitingCount="3" stopTime="0.00" timeLoss="104.63" rerouteNo="1" devices="tripinfo_pf_0.14_b0 person_pf_0.14_b0" vType="DEFAULT_BIKETYPE" speedFactor="0.95" vaporized=""/>
    <tripinfo id="pf_0.18_b0" depart="46.00" departLane="152839448#0_0" departPos="1.70" departSpeed="0.00" departDelay="6.00" arrival="363.00" arrivalLane="128643746#1_0" arrivalPos="15.76" arrivalSpeed="0.08" duration="317.00" routeLength="1138.02" waitingTime="45.00" waitingCount="4" stopTime="0.00" timeLoss="105.29" rerouteNo="1" devices="tripinfo_pf_0.18_b0 person_pf_0.18_b0" vType="DEFAULT_BIKETYPE" speedFactor="0.98" vaporized=""/>
    <tripinfo id="pf_0.16_b0" depart="41.00" departLane="152839448#0_0" departPos="1.70" departSpeed="0.00" departDelay="3.00" arrival="365.00" arrivalLane="128643746#1_0" arrivalPos="15.76" arrivalSpeed="0.59" duration="324.00" routeLength="1138.02" waitingTime="45.00" waitingCount="3" stopTime="0.00" timeLoss="121.04" rerouteNo="1" devices="tripinfo_pf_0.16_b0 person_pf_0.16_b0" vType="DEFAULT_BIKETYPE" speedFactor="1.02" vaporized=""/>
    <tripinfo id="pf_0.17_b0" depart="43.00" departLane="152839448#0_0" departPos="1.70" departSpeed="0.00" departDelay="4.00" arrival="368.00" arrivalLane="128643746#1_0" arrivalPos="15.76" arrivalSpeed="0.15" duration="325.00" routeLength="1138.02" waitingTime="43.00" waitingCount="3" stopTime="0.00" timeLoss="112.19" rerouteNo="1" devices="tripinfo_pf_0.17_b0 person_pf_0.17_b0" vType="DEFAULT_BIKETYPE" speedFactor="0.98" vaporized=""/>
    <tripinfo id="pf_0.19_b0" depart="48.00" departLane="152839448#0_0" departPos="1.70" departSpeed="0.00" departDelay="6.00" arrival="371.00" arrivalLane="128643746#1_0" arrivalPos="15.76" arrivalSpeed="0.17" duration="323.00" routeLength="1138.02" waitingTime="41.00" waitingCount="2" stopTime="0.00" timeLoss="128.91" rerouteNo="1" devices="tripinfo_pf_0.19_b0 person_pf_0.19_b0" vType="DEFAULT_BIKETYPE" speedFactor="1.07" vaporized=""/>
    <tripinfo id="pf_0.21_b0" depart="53.00" departLane="152839448#0_0" departPos="1.70" departSpeed="0.00" departDelay="8.00" arrival="374.00" arrivalLane="128643746#1_0" arrivalPos="15.76" arrivalSpeed="0.33" duration="321.00" routeLength="1138.02" waitingTime="36.00" waitingCount="3" stopTime="0.00" timeLoss="166.34" rerouteNo="1" devices="tripinfo_pf_0.21_b0 person_pf_0.21_b0" vType="DEFAULT_BIKETYPE" speedFactor="1.34" vaporized=""/>
    <tripinfo id="pf_0.20_b0" depart="51.00" departLane="152839448#0_0" departPos="1.70" departSpeed="0.00" departDelay="8.00" arrival="377.00" arrivalLane="128643746#1_0" arrivalPos="15.76" arrivalSpeed="0.36" duration="326.00" routeLength="1138.02" waitingTime="37.00" waitingCount="2" stopTime="0.00" timeLoss="100.26" rerouteNo="1" devices="tripinfo_pf_0.20_b0 person_pf_0.20_b0" vType="DEFAULT_BIKETYPE" speedFactor="0.92" vaporized=""/>
    <tripinfo id="pf_0.22_b0" depart="56.00" departLane="152839448#0_0" departPos="1.70" departSpeed="0.00" departDelay="11.00" arrival="380.00" arrivalLane="128643746#1_0" arrivalPos="15.76" arrivalSpeed="0.48" duration="324.00" routeLength="1138.02" waitingTime="35.00" waitingCount="2" stopTime="0.00" timeLoss="112.02" rerouteNo="1" devices="tripinfo_pf_0.22_b0 person_pf_0.22_b0" vType="DEFAULT_BIKETYPE" speedFactor="0.98" vaporized=""/>
    <tripinfo id="pf_0.23_b0" depart="58.00" departLane="152839448#0_0" departPos="1.70" departSpeed="0.00" departDelay="11.00" arrival="382.00" arrivalLane="128643746#1_0" arrivalPos="15.76" arrivalSpeed="0.19" duration="324.00" routeLength="1138.02" waitingTime="42.00" waitingCount="2" stopTime="0.00" timeLoss="115.02" rerouteNo="1" devices="tripinfo_pf_0.23_b0 person_pf_0.23_b0" vType="DEFAULT_BIKETYPE" speedFactor="0.99" vaporized=""/>
    <tripinfo id="pf_0.24_b0" depart="61.00" departLane="152839448#0_0" departPos="1.70" departSpeed="0.00" departDelay="13.00" arrival="384.00" arrivalLane="128643746#1_0" arrivalPos="15.76" arrivalSpeed="0.53" duration="323.00" routeLength="1138.02" waitingTime="39.00" waitingCount="2" stopTime="0.00" timeLoss="107.78" rerouteNo="1" devices="tripinfo_pf_0.24_b0 person_pf_0.24_b0" vType="DEFAULT_BIKETYPE" speedFactor="0.97" vaporized=""/>
    <tripinfo id="pf_0.25_b0" depart="63.00" departLane="152839448#0_0" departPos="1.70" departSpeed="0.00" departDelay="10.00" arrival="386.00" arrivalLane="128643746#1_0" arrivalPos="15.76" arrivalSpeed="0.56" duration="323.00" routeLength="1138.02" waitingTime="37.00" waitingCount="2" stopTime="0.00" timeLoss="98.93" rerouteNo="1" devices="tripinfo_pf_0.25_b0 person_pf_0.25_b0" vType="DEFAULT_BIKETYPE" speedFactor="0.93" vaporized=""/>
    <tripinfo id="pf_0.26_b0" depart="66.00" departLane="152839448#0_0" departPos="1.70" departSpeed="0.00" departDelay="13.00" arrival="388.00" arrivalLane="128643746#1_0" arrivalPos="15.76" arrivalSpeed="0.08" duration="322.00" routeLength="1138.02" waitingTime="37.00" waitingCount="3" stopTime="0.00" timeLoss="120.51" rerouteNo="1" devices="tripinfo_pf_0.26_b0 person_pf_0.26_b0" vType="DEFAULT_BIKETYPE" speedFactor="1.03" vaporized=""/>
    <tripinfo id="pf_0.27_b0" depart="68.00" departLane="152839448#0_0" departPos="1.70" departSpeed="0.00" departDelay="15.00" arrival="391.00" arrivalLane="128643746#1_0" arrivalPos="15.76" arrivalSpeed="0.18" duration="323.00" routeLength="1138.02" waitingTime="34.00" waitingCount="1" stopTime="0.00" timeLoss="97.86" rerouteNo="1" devices="tripinfo_pf_0.27_b0 person_pf_0.27_b0" vType="DEFAULT_BIKETYPE" speedFactor="0.92" vaporized=""/>
    <tripinfo id="pf_0.29_b0" depart="73.00" departLane="152839448#0_0" departPos="1.70" departSpeed="0.00" departDelay="10.00" arrival="395.00" arrivalLane="128643746#1_0" arrivalPos="15.76" arrivalSpeed="0.13" duration="322.00" routeLength="1138.02" waitingTime="35.00" waitingCount="1" stopTime="0.00" timeLoss="116.38" rerouteNo="1" devices="tripinfo_pf_0.29_b0 person_pf_0.29_b0" vType="DEFAULT_BIKETYPE" speedFactor="1.01" vaporized=""/>
    <tripinfo id="pf_0.28_b0" depart="71.00" departLane="152839448#0_0" departPos="1.70" departSpeed="0.00" departDelay="13.00" arrival="398.00" arrivalLane="128643746#1_0" arrivalPos="15.76" arrivalSpeed="0.23" duration="327.00" routeLength="1138.02" waitingTime="34.00" waitingCount="1" stopTime="0.00" timeLoss="142.34" rerouteNo="1" devices="tripinfo_pf_0.28_b0 person_pf_0.28_b0" vType="DEFAULT_BIKETYPE" speedFactor="1.13" vaporized=""/>
    <tripinfo id="pf_0.30_b0" depart="76.00" departLane="152839448#0_0" departPos="1.70" departSpeed="0.00" departDelay="10.00" arrival="400.00" arrivalLane="128643746#1_0" arrivalPos="15.76" arrivalSpeed="0.21" duration="324.00" routeLength="1138.02" waitingTime="35.00" waitingCount="1" stopTime="0.00" timeLoss="130.24" rerouteNo="1" devices="tripinfo_pf_0.30_b0 person_pf_0.30_b0" vType="DEFAULT_BIKETYPE" speedFactor="1.07" vaporized=""/>
    <tripinfo id="pf_0.31_b0" depart="81.00" departLane="152839448#0_0" departPos="1.70" departSpeed="0.00" departDelay="13.00" arrival="403.00" arrivalLane="128643746#1_0" arrivalPos="15.76" arrivalSpeed="0.07" duration="322.00" routeLength="1138.02" waitingTime="35.00" waitingCount="2" stopTime="0.00" timeLoss="99.40" rerouteNo="1" devices="tripinfo_pf_0.31_b0 person_pf_0.31_b0" vType="DEFAULT_BIKETYPE" speedFactor="0.93" vaporized=""/>
    <tripinfo id="pf_0.32_b0" depart="83.00" departLane="152839448#0_0" departPos="1.70" departSpeed="0.00" departDelay="9.00" arrival="406.00" arrivalLane="128643746#1_0" arrivalPos="15.76" arrivalSpeed="0.26" duration="323.00" routeLength="1138.02" waitingTime="24.00" waitingCount="2" stopTime="0.00" timeLoss="76.97" rerouteNo="1" devices="tripinfo_pf_0.32_b0 person_pf_0.32_b0" vType="DEFAULT_BIKETYPE" speedFactor="0.84" vaporized=""/>
    <tripinfo id="pf_0.33_b0" depart="86.00" departLane="152839448#0_0" departPos="1.70" departSpeed="0.00" departDelay="11.00" arrival="407.00" arrivalLane="128643746#1_0" arrivalPos="15.76" arrivalSpeed="2.47" duration="321.00" routeLength="1138.02" waitingTime="21.00" waitingCount="2" stopTime="0.00" timeLoss="130.12" rerouteNo="1" devices="tripinfo_pf_0.33_b0 person_pf_0.33_b0" vType="DEFAULT_BIKETYPE" speedFactor="1.09" vaporized=""/>
    <tripinfo id="pf_0.34_b0" depart="88.00" departLane="152839448#0_0" departPos="1.70" departSpeed="0.00" departDelay="12.00" arrival="410.00" arrivalLane="128643746#1_0" arrivalPos="15.76" arrivalSpeed="0.17" duration="322.00" routeLength="1138.02" waitingTime="21.00" waitingCount="2" stopTime="0.00" timeLoss="116.21" rerouteNo="1" devices="tripinfo_pf_0.34_b0 person_pf_0.34_b0" vType="DEFAULT_BIKETYPE" speedFactor="1.01" vaporized=""/>
    <tripinfo id="pf_0.35_b0" depart="91.00" departLane="152839448#0_0" departPos="1.70" departSpeed="0.00" departDelay="14.00" arrival="412.00" arrivalLane="128643746#1_0" arrivalPos="15.76" arrivalSpeed="0.90" duration="321.00" routeLength="1138.02" waitingTime="21.00" waitingCount="2" stopTime="0.00" timeLoss="105.20" rerouteNo="1" devices="tripinfo_pf_0.35_b0 person_pf_0.35_b0" vType="DEFAULT_BIKETYPE" speedFactor="0.96" vaporized=""/>
    <tripinfo id="pf_0.37_b0" depart="95.00" departLane="152839448#0_0" departPos="1.70" departSpeed="0.00" departDelay="16.00" arrival="416.00" arrivalLane="128643746#1_0" arrivalPos="15.76" arrivalSpeed="0.26" duration="321.00" routeLength="1138.02" waitingTime="20.00" waitingCount="3" stopTime="0.00" timeLoss="96.74" rerouteNo="1" devices="tripinfo_pf_0.37_b0 person_pf_0.37_b0" vType="DEFAULT_BIKETYPE" speedFactor="0.93" vaporized=""/>
    <tripinfo id="pf_0.39_b0" depart="101.00" departLane="152839448#0_0" departPos="1.70" departSpeed="0.00" departDelay="21.00" arrival="420.00" arrivalLane="128643746#1_0" arrivalPos="15.76" arrivalSpeed="0.10" duration="319.00" routeLength="1138.02" waitingTime="18.00" waitingCount="3" stopTime="0.00" timeLoss="127.98" rerouteNo="1" devices="tripinfo_pf_0.39_b0 person_pf_0.39_b0" vType="DEFAULT_BIKETYPE" speedFactor="1.09" vaporized=""/>
    <tripinfo id="pf_0.36_b0" depart="93.00" departLane="152839448#0_0" departPos="1.70" departSpeed="0.00" departDelay="15.00" arrival="424.00" arrivalLane="128643746#1_0" arrivalPos="15.76" arrivalSpeed="0.09" duration="331.00" routeLength="1138.02" waitingTime="21.00" waitingCount="3" stopTime="0.00" timeLoss="128.01" rerouteNo="1" devices="tripinfo_pf_0.36_b0 person_pf_0.36_b0" vType="DEFAULT_BIKETYPE" speedFactor="1.02" vaporized=""/>
    <tripinfo id="pf_0.38_b0" depart="98.00" departLane="152839448#0_0" departPos="1.70" departSpeed="0.00" departDelay="18.00" arrival="427.00" arrivalLane="128643746#1_0" arrivalPos="15.76" arrivalSpeed="0.31" duration="329.00" routeLength="1138.02" waitingTime="20.00" waitingCount="2" stopTime="0.00" timeLoss="142.28" rerouteNo="1" devices="tripinfo_pf_0.38_b0 person_pf_0.38_b0" vType="DEFAULT_BIKETYPE" speedFactor="1.11" vaporized=""/>
    <tripinfo id="pf_0.40_b0" depart="103.00" departLane="152839448#0_0" departPos="1.70" departSpeed="0.00" departDelay="23.00" arrival="429.00" arrivalLane="128643746#1_0" arrivalPos="15.76" arrivalSpeed="1.12" duration="326.00" routeLength="1138.02" waitingTime="18.00" waitingCount="3" stopTime="0.00" timeLoss="114.31" rerouteNo="1" devices="tripinfo_pf_0.40_b0 person_pf_0.40_b0" vType="DEFAULT_BIKETYPE" speedFactor="0.98" vaporized=""/>
    <tripinfo id="pf_0.41_b0" depart="106.00" departLane="152839448#0_0" departPos="1.70" departSpeed="0.00" departDelay="24.00" arrival="433.00" arrivalLane="128643746#1_0" arrivalPos="15.76" arrivalSpeed="0.09" duration="327.00" routeLength="1138.02" waitingTime="35.00" waitingCount="6" stopTime="0.00" timeLoss="143.70" rerouteNo="1" devices="tripinfo_pf_0.41_b0 person_pf_0.41_b0" vType="DEFAULT_BIKETYPE" speedFactor="1.14" vaporized=""/>
    <tripinfo id="pf_0.42_b0" depart="108.00" departLane="152839448#0_0" departPos="1.70" departSpeed="0.00" departDelay="24.00" arrival="437.00" arrivalLane="128643746#1_0" arrivalPos="15.76" arrivalSpeed="0.07" duration="329.00" routeLength="1138.02" waitingTime="35.00" waitingCount="5" stopTime="0.00" timeLoss="134.33" rerouteNo="1" devices="tripinfo_pf_0.42_b0 person_pf_0.42_b0" vType="DEFAULT_BIKETYPE" speedFactor="1.07" vaporized=""/>
    <tripinfo id="pf_0.43_b0" depart="111.00" departLane="152839448#0_0" departPos="1.70" departSpeed="0.00" departDelay="26.00" arrival="440.00" arrivalLane="128643746#1_0" arrivalPos="15.76" arrivalSpeed="0.22" duration="329.00" routeLength="1138.02" waitingTime="37.00" waitingCount="5" stopTime="0.00" timeLoss="105.37" rerouteNo="1" devices="tripinfo_pf_0.43_b0 person_pf_0.43_b0" vType="DEFAULT_BIKETYPE" speedFactor="0.93" vaporized=""/>
    <tripinfo id="pf_0.44_b0" depart="113.00" departLane="152839448#0_0" departPos="1.70" departSpeed="0.00" departDelay="26.00" arrival="442.00" arrivalLane="128643746#1_0" arrivalPos="15.76" arrivalSpeed="0.61" duration="329.00" routeLength="1138.02" waitingTime="34.00" waitingCount="5" stopTime="0.00" timeLoss="124.51" rerouteNo="1" devices="tripinfo_pf_0.44_b0 person_pf_0.44_b0" vType="DEFAULT_BIKETYPE" speedFactor="1.02" vaporized=""/>
    <tripinfo id="pf_0.45_b0" depart="116.00" departLane="152839448#0_0" departPos="1.70" departSpeed="0.00" departDelay="28.00" arrival="444.00" arrivalLane="128643746#1_0" arrivalPos="15.76" arrivalSpeed="0.71" duration="328.00" routeLength="1138.02" waitingTime="30.00" waitingCount="5" stopTime="0.00" timeLoss="96.99" rerouteNo="1" devices="tripinfo_pf_0.45_b0 person_pf_0.45_b0" vType="DEFAULT_BIKETYPE" speedFactor="0.90" vaporized=""/>
    <tripinfo id="pf_0.46_b0" depart="118.00" departLane="152839448#0_0" departPos="1.70" departSpeed="0.00" departDelay="30.00" arrival="447.00" arrivalLane="128643746#1_0" arrivalPos="15.76" arrivalSpeed="0.13" duration="329.00" routeLength="1138.02" waitingTime="27.00" waitingCount="5" stopTime="0.00" timeLoss="104.48" rerouteNo="1" devices="tripinfo_pf_0.46_b0 person_pf_0.46_b0" vType="DEFAULT_BIKETYPE" speedFactor="0.93" vaporized=""/>
    <tripinfo id="pf_0.47_b0" depart="121.00" departLane="152839448#0_0" departPos="1.70" departSpeed="0.00" departDelay="32.00" arrival="450.00" arrivalLane="128643746#1_0" arrivalPos="15.76" arrivalSpeed="0.33" duration="329.00" routeLength="1138.02" waitingTime="19.00" waitingCount="4" stopTime="0.00" timeLoss="94.51" rerouteNo="1" devices="tripinfo_pf_0.47_b0 person_pf_0.47_b0" vType="DEFAULT_BIKETYPE" speedFactor="0.89" vaporized=""/>
    <tripinfo id="pf_0.48_b0" depart="123.00" departLane="152839448#0_0" departPos="1.70" departSpeed="0.00" departDelay="32.00" arrival="454.00" arrivalLane="128643746#1_0" arrivalPos="15.76" arrivalSpeed="0.18" duration="331.00" routeLength="1138.02" waitingTime="17.00" waitingCount="4" stopTime="0.00" timeLoss="126.45" rerouteNo="1" devices="tripinfo_pf_0.48_b0 person_pf_0.48_b0" vType="DEFAULT_BIKETYPE" speedFactor="1.02" vaporized=""/>
    <tripinfo id="pf_0.50_b0" depart="128.00" departLane="152839448#0_0" departPos="1.70" departSpeed="0.00" departDelay="33.00" arrival="457.00" arrivalLane="128643746#1_0" arrivalPos="15.76" arrivalSpeed="0.20" duration="329.00" routeLength="1138.02" waitingTime="16.00" waitingCount="4" stopTime="0.00" timeLoss="98.15" rerouteNo="1" devices="tripinfo_pf_0.50_b0 person_pf_0.50_b0" vType="DEFAULT_BIKETYPE" speedFactor="0.90" vaporized=""/>
    <tripinfo id="pf_0.49_b0" depart="126.00" departLane="152839448#0_0" departPos="1.70" departSpeed="0.00" departDelay="33.00" arrival="460.00" arrivalLane="128643746#1_0" arrivalPos="15.76" arrivalSpeed="0.19" duration="334.00" routeLength="1138.02" waitingTime="16.00" waitingCount="3" stopTime="0.00" timeLoss="119.97" rerouteNo="1" devices="tripinfo_pf_0.49_b0 person_pf_0.49_b0" vType="DEFAULT_BIKETYPE" speedFactor="0.97" vaporized=""/>
    <tripinfo id="pf_0.51_b0" depart="131.00" departLane="152839448#0_0" departPos="1.70" departSpeed="0.00" departDelay="31.00" arrival="463.00" arrivalLane="128643746#1_0" arrivalPos="15.76" arrivalSpeed="0.08" duration="332.00" routeLength="1138.02" waitingTime="20.00" waitingCount="4" stopTime="0.00" timeLoss="136.82" rerouteNo="1" devices="tripinfo_pf_0.51_b0 person_pf_0.51_b0" vType="DEFAULT_BIKETYPE" speedFactor="1.07" vaporized=""/>
    <tripinfo id="pf_0.52_b0" depart="134.00" departLane="152839448#0_0" departPos="1.70" departSpeed="0.00" departDelay="34.00" arrival="467.00" arrivalLane="128643746#1_0" arrivalPos="15.76" arrivalSpeed="0.07" duration="333.00" routeLength="1138.02" waitingTime="17.00" waitingCount="4" stopTime="0.00" timeLoss="126.96" rerouteNo="1" devices="tripinfo_pf_0.52_b0 person_pf_0.52_b0" vType="DEFAULT_BIKETYPE" speedFactor="1.01" vaporized=""/>
    <tripinfo id="pf_0.55_b0" depart="144.00" departLane="152839448#0_0" departPos="1.70" departSpeed="0.00" departDelay="40.00" arrival="470.00" arrivalLane="128643746#1_0" arrivalPos="15.76" arrivalSpeed="0.25" duration="326.00" routeLength="1138.02" waitingTime="14.00" waitingCount="3" stopTime="0.00" timeLoss="113.15" rerouteNo="1" devices="tripinfo_pf_0.55_b0 person_pf_0.55_b0" vType="DEFAULT_BIKETYPE" speedFactor="0.98" vaporized=""/>
    <tripinfo id="pf_0.53_b0" depart="139.00" departLane="152839448#0_0" departPos="1.70" departSpeed="0.00" departDelay="37.00" arrival="473.00" arrivalLane="128643746#1_0" arrivalPos="15.76" arrivalSpeed="0.18" duration="334.00" routeLength="1138.02" waitingTime="14.00" waitingCount="2" stopTime="0.00" timeLoss="101.74" rerouteNo="1" devices="tripinfo_pf_0.53_b0 person_pf_0.53_b0" vType="DEFAULT_BIKETYPE" speedFactor="0.89" vaporized=""/>
    <tripinfo id="pf_0.54_b0" depart="141.00" departLane="152839448#0_0" departPos="1.70" departSpeed="0.00" departDelay="37.00" arrival="476.00" arrivalLane="128643746#1_0" arrivalPos="15.76" arrivalSpeed="0.24" duration="335.00" routeLength="1138.02" waitingTime="13.00" waitingCount="3" stopTime="0.00" timeLoss="123.70" rerouteNo="1" devices="tripinfo_pf_0.54_b0 person_pf_0.54_b0" vType="DEFAULT_BIKETYPE" speedFactor="0.98" vaporized=""/>
    <tripinfo id="pf_0.56_b0" depart="146.00" departLane="152839448#0_0" departPos="1.70" departSpeed="0.00" departDelay="41.00" arrival="479.00" arrivalLane="128643746#1_0" arrivalPos="15.76" arrivalSpeed="0.18" duration="333.00" routeLength="1138.02" waitingTime="18.00" waitingCount="4" stopTime="0.00" timeLoss="86.36" rerouteNo="1" devices="tripinfo_pf_0.56_b0 person_pf_0.56_b0" vType="DEFAULT_BIKETYPE" speedFactor="0.84" vaporized=""/>
    <tripinfo id="pf_0.57_b0" depart="149.00" departLane="152839448#0_0" departPos="1.70" departSpeed="0.00" departDelay="40.00" arrival="481.00" arrivalLane="128643746#1_0" arrivalPos="15.76" arrivalSpeed="0.12" duration="332.00" routeLength="1138.02" waitingTime="17.00" waitingCount="3" stopTime="0.00" timeLoss="127.48" rerouteNo="1" devices="tripinfo_pf_0.57_b0 person_pf_0.57_b0" vType="DEFAULT_BIKETYPE" speedFactor="1.02" vaporized=""/>
    <tripinfo id="pf_0.58_b0" depart="151.00" departLane="152839448#0_0" departPos="1.70" departSpeed="0.00" departDelay="41.00" arrival="484.00" arrivalLane="128643746#1_0" arrivalPos="15.76" arrivalSpeed="0.23" duration="333.00" routeLength="1138.02" waitingTime="14.00" waitingCount="4" stopTime="0.00" timeLoss="133.08" rerouteNo="1" devices="tripinfo_pf_0.58_b0 person_pf_0.58_b0" vType="DEFAULT_BIKETYPE" speedFactor="1.04" vaporized=""/>
    <tripinfo id="pf_0.59_b0" depart="154.00" departLane="152839448#0_0" departPos="1.70" departSpeed="0.00" departDelay="42.00" arrival="487.00" arrivalLane="128643746#1_0" arrivalPos="15.76" arrivalSpeed="0.29" duration="333.00" routeLength="1138.02" waitingTime="12.00" waitingCount="3" stopTime="0.00" timeLoss="117.73" rerouteNo="1" devices="tripinfo_pf_0.59_b0 person_pf_0.59_b0" vType="DEFAULT_BIKETYPE" speedFactor="0.96" vaporized=""/>
    <tripinfo id="pf_0.61_b0" depart="160.00" departLane="152839448#0_0" departPos="1.70" departSpeed="0.00" departDelay="44.00" arrival="490.00" arrivalLane="128643746#1_0" arrivalPos="15.76" arrivalSpeed="0.13" duration="330.00" routeLength="1138.02" waitingTime="13.00" waitingCount="3" stopTime="0.00" timeLoss="122.12" rerouteNo="1" devices="tripinfo_pf_0.61_b0 person_pf_0.61_b0" vType="DEFAULT_BIKETYPE" speedFactor="1.00" vaporized=""/>
    <tripinfo id="pf_0.60_b0" depart="157.00" departLane="152839448#0_0" departPos="1.70" departSpeed="0.00" departDelay="44.00" arrival="492.00" arrivalLane="128643746#1_0" arrivalPos="15.76" arrivalSpeed="0.96" duration="335.00" routeLength="1138.02" waitingTime="17.00" waitingCount="4" stopTime="0.00" timeLoss="135.85" rerouteNo="1" devices="tripinfo_pf_0.60_b0 person_pf_0.60_b0" vType="DEFAULT_BIKETYPE" speedFactor="1.04" vaporized=""/>
    <tripinfo id="pf_0.62_b0" depart="162.00" departLane="152839448#0_0" departPos="1.70" departSpeed="0.00" departDelay="46.00" arrival="495.00" arrivalLane="128643746#1_0" arrivalPos="15.76" arrivalSpeed="0.14" duration="333.00" routeLength="1138.02" waitingTime="16.00" waitingCount="4" stopTime="0.00" timeLoss="139.57" rerouteNo="1" devices="tripinfo_pf_0.62_b0 person_pf_0.62_b0" vType="DEFAULT_BIKETYPE" speedFactor="1.07" vaporized=""/>
    <tripinfo id="pf_0.63_b0" depart="164.00" departLane="152839448#0_0" departPos="1.70" departSpeed="0.00" departDelay="48.00" arrival="497.00" arrivalLane="128643746#1_0" arrivalPos="15.76" arrivalSpeed="0.41" duration="333.00" routeLength="1138.02" waitingTime="15.00" waitingCount="4" stopTime="0.00" timeLoss="116.59" rerouteNo="1" devices="tripinfo_pf_0.63_b0 person_pf_0.63_b0" vType="DEFAULT_BIKETYPE" speedFactor="0.96" vaporized=""/>