<?xml version="1.0" encoding="UTF-8"?>

<!-- generated on 2023-04-26 16:19:46 by Eclipse SUMO sumo Version 1.17.0
<configuration xmlns:xsi="http://www.w3.org/2001/XMLSchema-instance" xsi:noNamespaceSchemaLocation="http://sumo.dlr.de/xsd/sumoConfiguration.xsd">

    <input>
        <net-file value="C:\erdm_ja\sip-svn-trunk\papers\DLR\SUMO_Conference2023\tutorial\05_runMany.final\osm.net.xml.gz"/>
        <route-files value="C:\erdm_ja\sip-svn-trunk\papers\DLR\SUMO_Conference2023\tutorial\05_runMany.final\bikes.rou.xml"/>
    </input>

    <output>
        <output-prefix value="test2.sumocfg_0\2."/>
        <tripinfo-output value="C:\erdm_ja\sip-svn-trunk\papers\DLR\SUMO_Conference2023\tutorial\05_runMany.final\tripinfos.xml"/>
        <personinfo-output value="C:\erdm_ja\sip-svn-trunk\papers\DLR\SUMO_Conference2023\tutorial\05_runMany.final\personinfos.xml"/>
        <edgedata-output value="C:\erdm_ja\sip-svn-trunk\papers\DLR\SUMO_Conference2023\tutorial\05_runMany.final\edgedata.xml"/>
        <statistic-output value="C:\erdm_ja\sip-svn-trunk\papers\DLR\SUMO_Conference2023\tutorial\05_runMany.final\stats.xml"/>
    </output>

    <processing>
        <lateral-resolution value="0"/>
        <tls.actuated.jam-threshold value="30"/>
    </processing>

    <report>
        <no-step-log value="true"/>
    </report>

    <random_number>
        <seed value="2"/>
    </random_number>

</configuration>
-->

<meandata xmlns:xsi="http://www.w3.org/2001/XMLSchema-instance" xsi:noNamespaceSchemaLocation="http://sumo.dlr.de/xsd/meandata_file.xsd">
    <interval begin="0.00" end="31108.00" id="DEFAULT_EDGEDATA">
        <edge id="-128643746#1" sampledSeconds="7844.03" traveltime="15.76" overlapTraveltime="16.38" density="8.00" laneDensity="8.00" occupancy="1.23" waitingTime="457.00" timeLoss="2263.10" speed="2.02" speedRelative="0.73" departed="0" arrived="0" entered="479" left="479" laneChangedFrom="0" laneChangedTo="0"/>
        <edge id="-142575674#5" sampledSeconds="4022.78" traveltime="8.03" overlapTraveltime="8.40" density="3.71" laneDensity="3.71" occupancy="0.57" waitingTime="0.00" timeLoss="829.34" speed="4.34" speedRelative="0.31" departed="0" arrived="0" entered="479" left="479" laneChangedFrom="0" laneChangedTo="0"/>
        <edge id="-142575688#0" sampledSeconds="13062.60" traveltime="26.79" overlapTraveltime="27.27" density="9.65" laneDensity="9.65" occupancy="1.52" waitingTime="5698.00" timeLoss="9090.60" speed="1.65" speedRelative="0.12" departed="0" arrived="0" entered="479" left="479" laneChangedFrom="0" laneChangedTo="0"/>
        <edge id="-142575688#1" sampledSeconds="10286.02" traveltime="21.06" overlapTraveltime="21.47" density="8.34" laneDensity="8.34" occupancy="1.30" waitingTime="4256.00" timeLoss="6655.65" speed="1.92" speedRelative="0.14" departed="0" arrived="0" entered="479" left="479" laneChangedFrom="0" laneChangedTo="0"/>
        <edge id="-142575688#10" sampledSeconds="1037.08" traveltime="1.70" overlapTraveltime="2.17" density="5.27" laneDensity="5.27" occupancy="0.67" waitingTime="186.00" timeLoss="338.83" speed="3.66" speedRelative="0.26" departed="0" arrived="0" entered="479" left="479" laneChangedFrom="0" laneChangedTo="0"/>
        <edge id="-142575688#2" sampledSeconds="408.25" traveltime="0.48" overlapTraveltime="0.85" density="7.25" laneDensity="7.25" occupancy="0.65" waitingTime="26.00" timeLoss="107.99" speed="4.00" speedRelative="0.29" departed="0" arrived="0" entered="479" left="479" laneChangedFrom="0" laneChangedTo="0"/>
        <edge id="-142575688#3" sampledSeconds="3285.45" traveltime="6.47" overlapTraveltime="6.86" density="7.34" laneDensity="7.34" occupancy="1.11" waitingTime="1276.00" timeLoss="1878.39" speed="2.33" speedRelative="0.17" departed="0" arrived="0" entered="479" left="479" laneChangedFrom="0" laneChangedTo="0"/>
        <edge id="-142575688#5" sampledSeconds="490.65" traveltime="0.62" overlapTraveltime="1.02" density="38.47" laneDensity="38.47" occupancy="1.21" waitingTime="244.00" timeLoss="313.67" speed="1.96" speedRelative="0.14" departed="0" arrived="0" entered="479" left="479" laneChangedFrom="0" laneChangedTo="0"/>
        <edge id="-142575688#6" sampledSeconds="21753.99" traveltime="44.45" overlapTraveltime="45.42" density="6.65" laneDensity="6.65" occupancy="1.05" waitingTime="6561.00" timeLoss="12353.61" speed="2.35" speedRelative="0.17" departed="0" arrived="0" entered="479" left="479" laneChangedFrom="0" laneChangedTo="0"/>
        <edge id="-142575688#7" sampledSeconds="1290.74" traveltime="2.34" overlapTraveltime="2.69" density="5.19" laneDensity="5.19" occupancy="0.70" waitingTime="220.00" timeLoss="445.45" speed="3.56" speedRelative="0.26" departed="0" arrived="0" entered="479" left="479" laneChangedFrom="0" laneChangedTo="0"/>
        <edge id="-142575688#8" sampledSeconds="243.82" traveltime="0.08" overlapTraveltime="0.51" density="22.39" laneDensity="22.39" occupancy="0.59" waitingTime="35.00" timeLoss="72.12" speed="3.83" speedRelative="0.28" departed="0" arrived="0" entered="479" left="479" laneChangedFrom="0" laneChangedTo="0"/>
        <edge id="-142575688#9" sampledSeconds="797.52" traveltime="1.32" overlapTraveltime="1.66" density="5.36" laneDensity="5.36" occupancy="0.68" waitingTime="118.00" timeLoss="235.76" speed="3.83" speedRelative="0.28" departed="0" arrived="0" entered="479" left="479" laneChangedFrom="0" laneChangedTo="0"/>
        <edge id="1051578539#3" sampledSeconds="106831.36" traveltime="220.33" overlapTraveltime="223.03" density="17.19" laneDensity="17.19" occupancy="2.73" waitingTime="66152.00" timeLoss="89102.19" speed="0.90" speedRelative="0.16" departed="0" arrived="0" entered="479" left="479" laneChangedFrom="0" laneChangedTo="0"/>
        <edge id="1051578542#1" sampledSeconds="283.79" traveltime="0.19" overlapTraveltime="0.59" density="45.61" laneDensity="45.61" occupancy="0.73" waitingTime="64.00" timeLoss="125.30" speed="3.04" speedRelative="0.55" departed="0" arrived="0" entered="479" left="479" laneChangedFrom="0" laneChangedTo="0"/>
        <edge id="128643746#1" sampledSeconds="10406.37" traveltime="21.00" overlapTraveltime="21.75" density="10.61" laneDensity="10.61" occupancy="1.62" waitingTime="122.00" timeLoss="4598.24" speed="1.52" speedRelative="0.55" departed="479" arrived="479" entered="479" left="479" laneChangedFrom="0" laneChangedTo="0"/>
        <edge id="142575674#4" sampledSeconds="12553.51" traveltime="25.77" overlapTraveltime="26.21" density="11.58" laneDensity="11.58" occupancy="1.82" waitingTime="5838.00" timeLoss="9344.03" speed="1.39" speedRelative="0.10" departed="0" arrived="0" entered="479" left="479" laneChangedFrom="0" laneChangedTo="0"/>
        <edge id="142575688#0" sampledSeconds="5262.47" traveltime="10.57" overlapTraveltime="10.99" density="3.89" laneDensity="3.89" occupancy="0.60" waitingTime="0.00" timeLoss="1307.27" speed="4.11" speedRelative="0.30" departed="0" arrived="0" entered="479" left="479" laneChangedFrom="0" laneChangedTo="0"/>
        <edge id="142575688#1" sampledSeconds="6340.27" traveltime="12.78" overlapTraveltime="13.24" density="5.14" laneDensity="5.14" occupancy="0.79" waitingTime="0.00" timeLoss="2726.07" speed="3.11" speedRelative="0.22" departed="0" arrived="0" entered="479" left="479" laneChangedFrom="0" laneChangedTo="0"/>
        <edge id="142575688#10" sampledSeconds="2776.82" traveltime="4.62" overlapTraveltime="5.80" density="14.10" laneDensity="14.10" occupancy="1.80" waitingTime="0.00" timeLoss="2081.68" speed="1.37" speedRelative="0.10" departed="0" arrived="0" entered="479" left="479" laneChangedFrom="0" laneChangedTo="0"/>
        <edge id="142575688#2" sampledSeconds="332.83" traveltime="0.37" overlapTraveltime="0.69" density="5.91" laneDensity="5.91" occupancy="0.50" waitingTime="0.00" timeLoss="33.91" speed="4.91" speedRelative="0.35" departed="0" arrived="0" entered="479" left="479" laneChangedFrom="0" laneChangedTo="0"/>
        <edge id="142575688#3" sampledSeconds="1661.43" traveltime="3.13" overlapTraveltime="3.47" density="3.72" laneDensity="3.72" occupancy="0.54" waitingTime="0.00" timeLoss="264.13" speed="4.60" speedRelative="0.33" departed="0" arrived="0" entered="479" left="479" laneChangedFrom="0" laneChangedTo="0"/>
        <edge id="142575688#5" sampledSeconds="212.50" traveltime="0.10" overlapTraveltime="0.44" density="15.18" laneDensity="15.18" occupancy="0.53" waitingTime="0.00" timeLoss="32.80" speed="4.62" speedRelative="0.33" departed="0" arrived="0" entered="479" left="479" laneChangedFrom="0" laneChangedTo="0"/>
        <edge id="142575688#6" sampledSeconds="20402.14" traveltime="42.05" overlapTraveltime="42.59" density="6.23" laneDensity="6.23" occupancy="0.99" waitingTime="513.00" timeLoss="11039.23" speed="2.51" speedRelative="0.18" departed="0" arrived="0" entered="479" left="479" laneChangedFrom="0" laneChangedTo="0"/>
        <edge id="142575688#7" sampledSeconds="2632.03" traveltime="4.47" overlapTraveltime="5.49" density="10.43" laneDensity="10.43" occupancy="1.44" waitingTime="86.00" timeLoss="1780.86" speed="1.77" speedRelative="0.13" departed="0" arrived="0" entered="479" left="479" laneChangedFrom="0" laneChangedTo="0"/>
        <edge id="142575688#8" sampledSeconds="385.19" traveltime="0.21" overlapTraveltime="0.80" density="35.38" laneDensity="35.38" occupancy="0.98" waitingTime="20.00" timeLoss="214.26" speed="2.42" speedRelative="0.17" departed="0" arrived="0" entered="479" left="479" laneChangedFrom="0" laneChangedTo="0"/>
        <edge id="142575688#9" sampledSeconds="1569.18" traveltime="2.27" overlapTraveltime="3.28" density="10.55" laneDensity="10.55" occupancy="1.27" waitingTime="0.00" timeLoss="1009.91" speed="1.95" speedRelative="0.14" departed="0" arrived="0" entered="479" left="479" laneChangedFrom="0" laneChangedTo="0"/>
        <edge id="143308542#5" sampledSeconds="35814.52" traveltime="74.36" overlapTraveltime="74.77" density="11.23" laneDensity="5.61" occupancy="0.89" waitingTime="15152.00" timeLoss="26643.95" speed="1.39" speedRelative="0.10" departed="0" arrived="0" entered="479" left="479" laneChangedFrom="12" laneChangedTo="12"/>
        <edge id="143308542#7" sampledSeconds="14033.63" traveltime="27.63" overlapTraveltime="29.30" density="12.97" laneDensity="6.49" occupancy="1.00" waitingTime="5682.00" timeLoss="10830.31" speed="1.24" speedRelative="0.09" departed="0" arrived="0" entered="479" left="479" laneChangedFrom="0" laneChangedTo="0"/>
        <edge id="143308542#8" sampledSeconds="23461.12" traveltime="48.53" overlapTraveltime="48.98" density="15.53" laneDensity="7.77" occupancy="1.21" waitingTime="12764.27" timeLoss="19045.33" speed="1.02" speedRelative="0.07" departed="0" arrived="0" entered="479" left="479" laneChangedFrom="2" laneChangedTo="2"/>
        <edge id="143308552#1" sampledSeconds="36249.73" traveltime="75.24" overlapTraveltime="75.68" density="14.91" laneDensity="7.45" occupancy="1.19" waitingTime="19650.00" timeLoss="29225.86" speed="1.05" speedRelative="0.08" departed="0" arrived="0" entered="479" left="479" laneChangedFrom="5" laneChangedTo="5"/>
        <edge id="152839448#0" sampledSeconds="4019.90" traveltime="8.83" overlapTraveltime="9.18" density="7.12" laneDensity="2.37" occupancy="0.37" waitingTime="345.00" timeLoss="2437.64" speed="2.15" speedRelative="0.15" departed="479" arrived="0" entered="0" left="479" laneChangedFrom="0" laneChangedTo="0"/>
        <edge id="318210389#0" sampledSeconds="8850.95" traveltime="18.07" overlapTraveltime="18.48" density="7.03" laneDensity="1.76" occupancy="0.27" waitingTime="2225.00" timeLoss="5163.11" speed="2.28" speedRelative="0.16" departed="0" arrived="0" entered="479" left="479" laneChangedFrom="0" laneChangedTo="0"/>
        <edge id="52036180#5" sampledSeconds="7541.10" traveltime="31.54" overlapTraveltime="32.58" density="4.98" laneDensity="1.66" occupancy="0.26" waitingTime="90.00" timeLoss="5404.05" speed="1.54" speedRelative="0.11" departed="0" arrived="479" entered="479" left="0" laneChangedFrom="0" laneChangedTo="0"/>
        <edge id="541676219" sampledSeconds="6740.56" traveltime="13.69" overlapTraveltime="14.07" density="3.34" laneDensity="1.11" occupancy="0.17" waitingTime="0.00" timeLoss="914.70" speed="4.72" speedRelative="0.34" departed="0" arrived="0" entered="479" left="479" laneChangedFrom="0" laneChangedTo="0"/>
        <edge id="670062907#1" sampledSeconds="5411.99" traveltime="10.88" overlapTraveltime="11.30" density="3.58" laneDensity="1.79" occupancy="0.28" waitingTime="1.00" timeLoss="1007.18" speed="4.45" speedRelative="0.32" departed="0" arrived="0" entered="479" left="479" laneChangedFrom="407" laneChangedTo="407"/>
        <edge id="670062907#2" sampledSeconds="5341.94" traveltime="10.79" overlapTraveltime="11.15" density="3.75" laneDensity="1.88" occupancy="0.29" waitingTime="1.00" timeLoss="1191.26" speed="4.25" speedRelative="0.31" departed="0" arrived="0" entered="479" left="479" laneChangedFrom="54" laneChangedTo="54"/>
        <edge id="670062907#4" sampledSeconds="12847.92" traveltime="26.41" overlapTraveltime="26.82" density="4.73" laneDensity="2.37" occupancy="0.37" waitingTime="1462.00" timeLoss="5058.49" speed="3.31" speedRelative="0.24" departed="0" arrived="0" entered="479" left="479" laneChangedFrom="4" laneChangedTo="4"/>
        <edge id="670062909#1" sampledSeconds="18873.21" traveltime="39.01" overlapTraveltime="39.40" density="7.77" laneDensity="2.59" occupancy="0.41" waitingTime="6510.00" timeLoss="11887.62" speed="2.02" speedRelative="0.15" departed="0" arrived="0" entered="479" left="479" laneChangedFrom="0" laneChangedTo="0"/>
        <edge id="670062912#1" sampledSeconds="32465.60" traveltime="67.35" overlapTraveltime="67.78" density="6.09" laneDensity="2.03" occupancy="0.32" waitingTime="7948.00" timeLoss="17298.74" speed="2.55" speedRelative="0.18" departed="0" arrived="0" entered="479" left="479" laneChangedFrom="0" laneChangedTo="0"/>
        <edge id="81639675#1" sampledSeconds="6818.57" traveltime="13.82" overlapTraveltime="14.24" density="9.72" laneDensity="3.24" occupancy="0.50" waitingTime="3107.00" timeLoss="4702.47" speed="1.70" speedRelative="0.12" departed="0" arrived="0" entered="479" left="479" laneChangedFrom="0" laneChangedTo="0"/>
        <edge id="976351540#1" sampledSeconds="11757.79" traveltime="24.14" overlapTraveltime="24.55" density="5.99" laneDensity="2.00" occupancy="0.31" waitingTime="1918.00" timeLoss="6064.38" speed="2.63" speedRelative="0.19" departed="0" arrived="0" entered="479" left="479" laneChangedFrom="0" laneChangedTo="0"/>
    </interval>
</meandata>
