<?xml version="1.0" encoding="UTF-8"?>

<!-- generated on 2023-04-26 16:19:46 by Eclipse SUMO sumo Version 1.17.0
<configuration xmlns:xsi="http://www.w3.org/2001/XMLSchema-instance" xsi:noNamespaceSchemaLocation="http://sumo.dlr.de/xsd/sumoConfiguration.xsd">

    <input>
        <net-file value="C:\erdm_ja\sip-svn-trunk\papers\DLR\SUMO_Conference2023\tutorial\05_runMany.final\osm.net.xml.gz"/>
        <route-files value="C:\erdm_ja\sip-svn-trunk\papers\DLR\SUMO_Conference2023\tutorial\05_runMany.final\bikes.rou.xml"/>
    </input>

    <output>
        <output-prefix value="test2.sumocfg_0\2."/>
        <tripinfo-output value="C:\erdm_ja\sip-svn-trunk\papers\DLR\SUMO_Conference2023\tutorial\05_runMany.final\tripinfos.xml"/>
        <personinfo-output value="C:\erdm_ja\sip-svn-trunk\papers\DLR\SUMO_Conference2023\tutorial\05_runMany.final\personinfos.xml"/>
        <edgedata-output value="C:\erdm_ja\sip-svn-trunk\papers\DLR\SUMO_Conference2023\tutorial\05_runMany.final\edgedata.xml"/>
        <statistic-output value="C:\erdm_ja\sip-svn-trunk\papers\DLR\SUMO_Conference2023\tutorial\05_runMany.final\stats.xml"/>
    </output>

    <processing>
        <lateral-resolution value="0"/>
        <tls.actuated.jam-threshold value="30"/>
    </processing>

    <report>
        <no-step-log value="true"/>
    </report>

    <random_number>
        <seed value="2"/>
    </random_number>

</configuration>
-->

<tripinfos xmlns:xsi="http://www.w3.org/2001/XMLSchema-instance" xsi:noNamespaceSchemaLocation="http://sumo.dlr.de/xsd/tripinfo_file.xsd">
    <tripinfo id="pf_0.0_b0" depart="2.00" departLane="152839448#0_0" departPos="1.70" departSpeed="0.00" departDelay="0.00" arrival="216.00" arrivalLane="128643746#1_0" arrivalPos="15.76" arrivalSpeed="0.20" duration="214.00" routeLength="1138.02" waitingTime="8.00" waitingCount="2" stopTime="0.00" timeLoss="32.30" rerouteNo="1" devices="tripinfo_pf_0.0_b0 person_pf_0.0_b0" vType="DEFAULT_BIKETYPE" speedFactor="1.14" vaporized=""/>
    <tripinfo id="pf_0.2_b0" depart="7.00" departLane="152839448#0_0" departPos="1.70" departSpeed="0.00" departDelay="3.00" arrival="319.00" arrivalLane="128643746#1_0" arrivalPos="15.76" arrivalSpeed="0.08" duration="312.00" routeLength="1138.02" waitingTime="49.00" waitingCount="3" stopTime="0.00" timeLoss="103.55" rerouteNo="1" devices="tripinfo_pf_0.2_b0 person_pf_0.2_b0" vType="DEFAULT_BIKETYPE" speedFactor="1.00" vaporized=""/>
    <tripinfo id="pf_0.5_b0" depart="14.00" departLane="152839448#0_0" departPos="1.70" departSpeed="0.00" departDelay="4.00" arrival="322.00" arrivalLane="128643746#1_0" arrivalPos="15.76" arrivalSpeed="0.16" duration="308.00" routeLength="1138.02" waitingTime="46.00" waitingCount="2" stopTime="0.00" timeLoss="146.60" rerouteNo="1" devices="tripinfo_pf_0.5_b0 person_pf_0.5_b0" vType="DEFAULT_BIKETYPE" speedFactor="1.29" vaporized=""/>
    <tripinfo id="pf_0.1_b0" depart="4.00" departLane="152839448#0_0" departPos="1.70" departSpeed="0.00" departDelay="2.00" arrival="343.00" arrivalLane="128643746#1_0" arrivalPos="15.76" arrivalSpeed="0.22" duration="339.00" routeLength="1138.02" waitingTime="46.00" waitingCount="3" stopTime="0.00" timeLoss="79.16" rerouteNo="1" devices="tripinfo_pf_0.1_b0 person_pf_0.1_b0" vType="DEFAULT_BIKETYPE" speedFactor="0.80" vaporized=""/>
    <tripinfo id="pf_0.4_b0" depart="12.00" departLane="152839448#0_0" departPos="1.70" departSpeed="0.00" departDelay="3.00" arrival="345.00" arrivalLane="128643746#1_0" arrivalPos="15.76" arrivalSpeed="1.23" duration="333.00" routeLength="1138.02" waitingTime="41.00" waitingCount="2" stopTime="0.00" timeLoss="113.37" rerouteNo="1" devices="tripinfo_pf_0.4_b0 person_pf_0.4_b0" vType="DEFAULT_BIKETYPE" speedFactor="0.95" vaporized=""/>
    <tripinfo id="pf_0.3_b0" depart="9.00" departLane="152839448#0_0" departPos="1.70" departSpeed="0.00" departDelay="1.00" arrival="348.00" arrivalLane="128643746#1_0" arrivalPos="15.76" arrivalSpeed="0.15" duration="339.00" routeLength="1138.02" waitingTime="40.00" waitingCount="2" stopTime="0.00" timeLoss="137.96" rerouteNo="1" devices="tripinfo_pf_0.3_b0 person_pf_0.3_b0" vType="DEFAULT_BIKETYPE" speedFactor="1.04" vaporized=""/>
    <tripinfo id="pf_0.6_b0" depart="17.00" departLane="152839448#0_0" departPos="1.70" departSpeed="0.00" departDelay="6.00" arrival="351.00" arrivalLane="128643746#1_0" arrivalPos="15.76" arrivalSpeed="0.09" duration="334.00" routeLength="1138.02" waitingTime="41.00" waitingCount="3" stopTime="0.00" timeLoss="116.39" rerouteNo="1" devices="tripinfo_pf_0.6_b0 person_pf_0.6_b0" vType="DEFAULT_BIKETYPE" speedFactor="0.95" vaporized=""/>
    <tripinfo id="pf_0.8_b0" depart="22.00" departLane="152839448#0_0" departPos="1.70" departSpeed="0.00" departDelay="9.00" arrival="354.00" arrivalLane="128643746#1_0" arrivalPos="15.76" arrivalSpeed="0.18" duration="332.00" routeLength="1138.02" waitingTime="37.00" waitingCount="2" stopTime="0.00" timeLoss="130.82" rerouteNo="1" devices="tripinfo_pf_0.8_b0 person_pf_0.8_b0" vType="DEFAULT_BIKETYPE" speedFactor="1.03" vaporized=""/>
    <tripinfo id="pf_0.7_b0" depart="19.00" departLane="152839448#0_0" departPos="1.70" departSpeed="0.00" departDelay="7.00" arrival="357.00" arrivalLane="128643746#1_0" arrivalPos="15.76" arrivalSpeed="0.18" duration="338.00" routeLength="1138.02" waitingTime="37.00" waitingCount="2" stopTime="0.00" timeLoss="114.21" rerouteNo="1" devices="tripinfo_pf_0.7_b0 person_pf_0.7_b0" vType="DEFAULT_BIKETYPE" speedFactor="0.93" vaporized=""/>
    <tripinfo id="pf_0.10_b0" depart="28.00" departLane="152839448#0_0" departPos="1.70" departSpeed="0.00" departDelay="14.00" arrival="360.00" arrivalLane="128643746#1_0" arrivalPos="15.76" arrivalSpeed="0.12" duration="332.00" routeLength="1138.02" waitingTime="36.00" waitingCount="2" stopTime="0.00" timeLoss="117.98" rerouteNo="1" devices="tripinfo_pf_0.10_b0 person_pf_0.10_b0" vType="DEFAULT_BIKETYPE" speedFactor="0.97" vaporized=""/>
    <tripinfo id="pf_0.9_b0" depart="25.00" departLane="152839448#0_0" departPos="1.70" departSpeed="0.00" departDelay="11.00" arrival="362.00" arrivalLane="128643746#1_0" arrivalPos="15.76" arrivalSpeed="0.37" duration="337.00" routeLength="1138.02" waitingTime="37.00" waitingCount="2" stopTime="0.00" timeLoss="134.95" rerouteNo="1" devices="tripinfo_pf_0.9_b0 person_pf_0.9_b0" vType="DEFAULT_BIKETYPE" speedFactor="1.03" vaporized=""/>
    <tripinfo id="pf_0.11_b0" depart="30.00" departLane="152839448#0_0" departPos="1.70" departSpeed="0.00" departDelay="14.00" arrival="365.00" arrivalLane="128643746#1_0" arrivalPos="15.76" arrivalSpeed="0.09" duration="335.00" routeLength="1138.02" waitingTime="35.00" waitingCount="3" stopTime="0.00" timeLoss="133.89" rerouteNo="1" devices="tripinfo_pf_0.11_b0 person_pf_0.11_b0" vType="DEFAULT_BIKETYPE" speedFactor="1.03" vaporized=""/>
    <tripinfo id="pf_0.13_b0" depart="35.00" departLane="152839448#0_0" departPos="1.70" departSpeed="0.00" departDelay="12.00" arrival="367.00" arrivalLane="128643746#1_0" arrivalPos="15.76" arrivalSpeed="1.16" duration="332.00" routeLength="1138.02" waitingTime="32.00" waitingCount="3" stopTime="0.00" timeLoss="103.77" rerouteNo="1" devices="tripinfo_pf_0.13_b0 person_pf_0.13_b0" vType="DEFAULT_BIKETYPE" speedFactor="0.91" vaporized=""/>
    <tripinfo id="pf_0.12_b0" depart="33.00" departLane="152839448#0_0" departPos="1.70" departSpeed="0.00" departDelay="12.00" arrival="370.00" arrivalLane="128643746#1_0" arrivalPos="15.76" arrivalSpeed="0.09" duration="337.00" routeLength="1138.02" waitingTime="35.00" waitingCount="5" stopTime="0.00" timeLoss="88.90" rerouteNo="1" devices="tripinfo_pf_0.12_b0 person_pf_0.12_b0" vType="DEFAULT_BIKETYPE" speedFactor="0.84" vaporized=""/>
    <tripinfo id="pf_0.15_b0" depart="40.00" departLane="152839448#0_0" departPos="1.70" departSpeed="0.00" departDelay="13.00" arrival="373.00" arrivalLane="128643746#1_0" arrivalPos="15.76" arrivalSpeed="0.10" duration="333.00" routeLength="1138.02" waitingTime="29.00" waitingCount="3" stopTime="0.00" timeLoss="99.00" rerouteNo="1" devices="tripinfo_pf_0.15_b0 person_pf_0.15_b0" vType="DEFAULT_BIKETYPE" speedFactor="0.89" vaporized=""/>
    <tripinfo id="pf_0.14_b0" depart="37.00" departLane="152839448#0_0" departPos="1.70" departSpeed="0.00" departDelay="12.00" arrival="377.00" arrivalLane="128643746#1_0" arrivalPos="15.76" arrivalSpeed="0.12" duration="340.00" routeLength="1138.02" waitingTime="31.00" waitingCount="3" stopTime="0.00" timeLoss="119.09" rerouteNo="1" devices="tripinfo_pf_0.14_b0 person_pf_0.14_b0" vType="DEFAULT_BIKETYPE" speedFactor="0.94" vaporized=""/>
    <tripinfo id="pf_0.16_b0" depart="42.00" departLane="152839448#0_0" departPos="1.70" departSpeed="0.00" departDelay="12.00" arrival="381.00" arrivalLane="128643746#1_0" arrivalPos="15.76" arrivalSpeed="0.08" duration="339.00" routeLength="1138.02" waitingTime="29.00" waitingCount="4" stopTime="0.00" timeLoss="113.64" rerouteNo="1" devices="tripinfo_pf_0.16_b0 person_pf_0.16_b0" vType="DEFAULT_BIKETYPE" speedFactor="0.92" vaporized=""/>
    <tripinfo id="pf_0.17_b0" depart="44.00" departLane="152839448#0_0" departPos="1.70" departSpeed="0.00" departDelay="14.00" arrival="384.00" arrivalLane="128643746#1_0" arrivalPos="15.76" arrivalSpeed="0.24" duration="340.00" routeLength="1138.02" waitingTime="27.00" waitingCount="3" stopTime="0.00" timeLoss="102.27" rerouteNo="1" devices="tripinfo_pf_0.17_b0 person_pf_0.17_b0" vType="DEFAULT_BIKETYPE" speedFactor="0.87" vaporized=""/>
    <tripinfo id="pf_0.18_b0" depart="46.00" departLane="152839448#0_0" departPos="1.70" departSpeed="0.00" departDelay="14.00" arrival="387.00" arrivalLane="128643746#1_0" arrivalPos="15.76" arrivalSpeed="0.13" duration="341.00" routeLength="1138.02" waitingTime="23.00" waitingCount="3" stopTime="0.00" timeLoss="100.12" rerouteNo="1" devices="tripinfo_pf_0.18_b0 person_pf_0.18_b0" vType="DEFAULT_BIKETYPE" speedFactor="0.86" vaporized=""/>
    <tripinfo id="pf_0.19_b0" depart="49.00" departLane="152839448#0_0" departPos="1.70" departSpeed="0.00" departDelay="15.00" arrival="390.00" arrivalLane="128643746#1_0" arrivalPos="15.76" arrivalSpeed="0.09" duration="341.00" routeLength="1138.02" waitingTime="25.00" waitingCount="4" stopTime="0.00" timeLoss="122.21" rerouteNo="1" devices="tripinfo_pf_0.19_b0 person_pf_0.19_b0" vType="DEFAULT_BIKETYPE" speedFactor="0.95" vaporized=""/>
    <tripinfo id="pf_0.20_b0" depart="51.00" departLane="152839448#0_0" departPos="1.70" departSpeed="0.00" departDelay="16.00" arrival="392.00" arrivalLane="128643746#1_0" arrivalPos="15.76" arrivalSpeed="0.51" duration="341.00" routeLength="1138.02" waitingTime="22.00" waitingCount="3" stopTime="0.00" timeLoss="135.03" rerouteNo="1" devices="tripinfo_pf_0.20_b0 person_pf_0.20_b0" vType="DEFAULT_BIKETYPE" speedFactor="1.01" vaporized=""/>
    <tripinfo id="pf_0.22_b0" depart="56.00" departLane="152839448#0_0" departPos="1.70" departSpeed="0.00" departDelay="19.00" arrival="395.00" arrivalLane="128643746#1_0" arrivalPos="15.76" arrivalSpeed="0.09" duration="339.00" routeLength="1138.02" waitingTime="23.00" waitingCount="5" stopTime="0.00" timeLoss="140.69" rerouteNo="1" devices="tripinfo_pf_0.22_b0 person_pf_0.22_b0" vType="DEFAULT_BIKETYPE" speedFactor="1.05" vaporized=""/>
    <tripinfo id="pf_0.21_b0" depart="54.00" departLane="152839448#0_0" departPos="1.70" departSpeed="0.00" departDelay="18.00" arrival="398.00" arrivalLane="128643746#1_0" arrivalPos="15.76" arrivalSpeed="0.14" duration="344.00" routeLength="1138.02" waitingTime="21.00" waitingCount="3" stopTime="0.00" timeLoss="149.93" rerouteNo="1" devices="tripinfo_pf_0.21_b0 person_pf_0.21_b0" vType="DEFAULT_BIKETYPE" speedFactor="1.07" vaporized=""/>
    <tripinfo id="pf_0.24_b0" depart="61.00" departLane="152839448#0_0" departPos="1.70" departSpeed="0.00" departDelay="20.00" arrival="400.00" arrivalLane="128643746#1_0" arrivalPos="15.76" arrivalSpeed="0.16" duration="339.00" routeLength="1138.02" waitingTime="19.00" waitingCount="3" stopTime="0.00" timeLoss="150.85" rerouteNo="1" devices="tripinfo_pf_0.24_b0 person_pf_0.24_b0" vType="DEFAULT_BIKETYPE" speedFactor="1.10" vaporized=""/>
    <tripinfo id="pf_0.23_b0" depart="59.00" departLane="152839448#0_0" departPos="1.70" departSpeed="0.00" departDelay="22.00" arrival="403.00" arrivalLane="128643746#1_0" arrivalPos="15.76" arrivalSpeed="0.08" duration="344.00" routeLength="1138.02" waitingTime="23.00" waitingCount="4" stopTime="0.00" timeLoss="113.75" rerouteNo="1" devices="tripinfo_pf_0.23_b0 person_pf_0.23_b0" vType="DEFAULT_BIKETYPE" speedFactor="0.90" vaporized=""/>
    <tripinfo id="pf_0.25_b0" depart="64.00" departLane="152839448#0_0" departPos="1.70" departSpeed="0.00" departDelay="23.00" arrival="407.00" arrivalLane="128643746#1_0" arrivalPos="15.76" arrivalSpeed="0.07" duration="343.00" routeLength="1138.02" waitingTime="20.00" waitingCount="4" stopTime="0.00" timeLoss="124.24" rerouteNo="1" devices="tripinfo_pf_0.25_b0 person_pf_0.25_b0" vType="DEFAULT_BIKETYPE" speedFactor="0.95" vaporized=""/>
    <tripinfo id="pf_0.26_b0" depart="66.00" departLane="152839448#0_0" departPos="1.70" departSpeed="0.00" departDelay="23.00" arrival="411.00" arrivalLane="128643746#1_0" arrivalPos="15.76" arrivalSpeed="0.10" duration="345.00" routeLength="1138.02" waitingTime="20.00" waitingCount="3" stopTime="0.00" timeLoss="133.11" rerouteNo="1" devices="tripinfo_pf_0.26_b0 person_pf_0.26_b0" vType="DEFAULT_BIKETYPE" speedFactor="0.98" vaporized=""/>
    <tripinfo id="pf_0.27_b0" depart="69.00" departLane="152839448#0_0" departPos="1.70" departSpeed="0.00" departDelay="26.00" arrival="414.00" arrivalLane="128643746#1_0" arrivalPos="15.76" arrivalSpeed="0.09" duration="345.00" routeLength="1138.02" waitingTime="21.00" waitingCount="4" stopTime="0.00" timeLoss="134.15" rerouteNo="1" devices="tripinfo_pf_0.27_b0 person_pf_0.27_b0" vType="DEFAULT_BIKETYPE" speedFactor="0.99" vaporized=""/>
    <tripinfo id="pf_0.28_b0" depart="71.00" departLane="152839448#0_0" departPos="1.70" departSpeed="0.00" departDelay="27.00" arrival="417.00" arrivalLane="128643746#1_0" arrivalPos="15.76" arrivalSpeed="0.15" duration="346.00" routeLength="1138.02" waitingTime="19.00" waitingCount="3" stopTime="0.00" timeLoss="164.70" rerouteNo="1" devices="tripinfo_pf_0.28_b0 person_pf_0.28_b0" vType="DEFAULT_BIKETYPE" speedFactor="1.15" vaporized=""/>
    <tripinfo id="pf_0.29_b0" depart="73.00" departLane="152839448#0_0" departPos="1.70" departSpeed="0.00" departDelay="29.00" arrival="421.00" arrivalLane="128643746#1_0" arrivalPos="15.76" arrivalSpeed="0.10" duration="348.00" routeLength="1138.02" waitingTime="30.00" waitingCount="4" stopTime="0.00" timeLoss="127.62" rerouteNo="1" devices="tripinfo_pf_0.29_b0 person_pf_0.29_b0" vType="DEFAULT_BIKETYPE" speedFactor="0.94" vaporized=""/>
    <tripinfo id="pf_0.30_b0" depart="76.00" departLane="152839448#0_0" departPos="1.70" departSpeed="0.00" departDelay="31.00" arrival="424.00" arrivalLane="128643746#1_0" arrivalPos="15.76" arrivalSpeed="0.07" duration="348.00" routeLength="1138.02" waitingTime="30.00" waitingCount="5" stopTime="0.00" timeLoss="121.44" rerouteNo="1" devices="tripinfo_pf_0.30_b0 person_pf_0.30_b0" vType="DEFAULT_BIKETYPE" speedFactor="0.92" vaporized=""/>
    <tripinfo id="pf_0.31_b0" depart="80.00" departLane="152839448#0_0" departPos="1.70" departSpeed="0.00" departDelay="33.00" arrival="427.00" arrivalLane="128643746#1_0" arrivalPos="15.76" arrivalSpeed="0.25" duration="347.00" routeLength="1138.02" waitingTime="25.00" waitingCount="4" stopTime="0.00" timeLoss="122.66" rerouteNo="1" devices="tripinfo_pf_0.31_b0 person_pf_0.31_b0" vType="DEFAULT_BIKETYPE" speedFactor="0.93" vaporized=""/>
    <tripinfo id="pf_0.32_b0" depart="83.00" departLane="152839448#0_0" departPos="1.70" departSpeed="0.00" departDelay="31.00" arrival="431.00" arrivalLane="128643746#1_0" arrivalPos="15.76" arrivalSpeed="0.17" duration="348.00" routeLength="1138.02" waitingTime="26.00" waitingCount="3" stopTime="0.00" timeLoss="145.86" rerouteNo="1" devices="tripinfo_pf_0.32_b0 person_pf_0.32_b0" vType="DEFAULT_BIKETYPE" speedFactor="1.03" vaporized=""/>
    <tripinfo id="pf_0.33_b0" depart="85.00" departLane="152839448#0_0" departPos="1.70" departSpeed="0.00" departDelay="32.00" arrival="433.00" arrivalLane="128643746#1_0" arrivalPos="15.76" arrivalSpeed="1.04" duration="348.00" routeLength="1138.02" waitingTime="24.00" waitingCount="4" stopTime="0.00" timeLoss="129.58" rerouteNo="1" devices="tripinfo_pf_0.33_b0 person_pf_0.33_b0" vType="DEFAULT_BIKETYPE" speedFactor="0.95" vaporized=""/>
    <tripinfo id="pf_0.34_b0" depart="87.00" departLane="152839448#0_0" departPos="1.70" departSpeed="0.00" departDelay="32.00" arrival="436.00" arrivalLane="128643746#1_0" arrivalPos="15.76" arrivalSpeed="0.16" duration="349.00" routeLength="1138.02" waitingTime="23.00" waitingCount="3" stopTime="0.00" timeLoss="158.10" rerouteNo="1" devices="tripinfo_pf_0.34_b0 person_pf_0.34_b0" vType="DEFAULT_BIKETYPE" speedFactor="1.09" vaporized=""/>
    <tripinfo id="pf_0.35_b0" depart="90.00" departLane="152839448#0_0" departPos="1.70" departSpeed="0.00" departDelay="34.00" arrival="437.00" arrivalLane="128643746#1_0" arrivalPos="15.76" arrivalSpeed="2.55" duration="347.00" routeLength="1138.02" waitingTime="28.00" waitingCount="3" stopTime="0.00" timeLoss="121.40" rerouteNo="1" devices="tripinfo_pf_0.35_b0 person_pf_0.35_b0" vType="DEFAULT_BIKETYPE" speedFactor="0.92" vaporized=""/>
    <tripinfo id="pf_0.37_b0" depart="95.00" departLane="152839448#0_0" departPos="1.70" departSpeed="0.00" departDelay="38.00" arrival="440.00" arrivalLane="128643746#1_0" arrivalPos="15.76" arrivalSpeed="0.23" duration="345.00" routeLength="1138.02" waitingTime="35.00" waitingCount="4" stopTime="0.00" timeLoss="135.50" rerouteNo="1" devices="tripinfo_pf_0.37_b0 person_pf_0.37_b0" vType="DEFAULT_BIKETYPE" speedFactor="0.99" vaporized=""/>
    <tripinfo id="pf_0.36_b0" depart="92.00" departLane="152839448#0_0" departPos="1.70" departSpeed="0.00" departDelay="35.00" arrival="442.00" arrivalLane="128643746#1_0" arrivalPos="15.76" arrivalSpeed="0.12" duration="350.00" routeLength="1138.02" waitingTime="30.00" waitingCount="5" stopTime="0.00" timeLoss="147.60" rerouteNo="1" devices="tripinfo_pf_0.36_b0 person_pf_0.36_b0" vType="DEFAULT_BIKETYPE" speedFactor="1.03" vaporized=""/>
    <tripinfo id="pf_0.38_b0" depart="97.00" departLane="152839448#0_0" departPos="1.70" departSpeed="0.00" departDelay="36.00" arrival="444.00" arrivalLane="128643746#1_0" arrivalPos="15.76" arrivalSpeed="0.09" duration="347.00" routeLength="1138.02" waitingTime="35.00" waitingCount="6" stopTime="0.00" timeLoss="152.05" rerouteNo="1" devices="tripinfo_pf_0.38_b0 person_pf_0.38_b0" vType="DEFAULT_BIKETYPE" speedFactor="1.07" vaporized=""/>
    <tripinfo id="pf_0.39_b0" depart="100.00" departLane="152839448#0_0" departPos="1.70" departSpeed="0.00" departDelay="37.00" arrival="447.00" arrivalLane="128643746#1_0" arrivalPos="15.76" arrivalSpeed="0.39" duration="347.00" routeLength="1138.02" waitingTime="32.00" waitingCount="4" stopTime="0.00" timeLoss="132.85" rerouteNo="1" devices="tripinfo_pf_0.39_b0 person_pf_0.39_b0" vType="DEFAULT_BIKETYPE" speedFactor="0.97" vaporized=""/>
    <tripinfo id="pf_0.40_b0" depart="103.00" departLane="152839448#0_0" departPos="1.70" departSpeed="0.00" departDelay="34.00" arrival="449.00" arrivalLane="128643746#1_0" arrivalPos="15.76" arrivalSpeed="0.96" duration="346.00" routeLength="1138.02" waitingTime="20.00" waitingCount="4" stopTime="0.00" timeLoss="103.62" rerouteNo="1" devices="tripinfo_pf_0.40_b0 person_pf_0.40_b0" vType="DEFAULT_BIKETYPE" speedFactor="0.86" vaporized=""/>
    <tripinfo id="pf_0.41_b0" depart="105.00" departLane="152839448#0_0" departPos="1.70" departSpeed="0.00" departDelay="34.00" arrival="452.00" arrivalLane="128643746#1_0" arrivalPos="15.76" arrivalSpeed="0.14" duration="347.00" routeLength="1138.02" waitingTime="20.00" waitingCount="5" stopTime="0.00" timeLoss="119.83" rerouteNo="1" devices="tripinfo_pf_0.41_b0 person_pf_0.41_b0" vType="DEFAULT_BIKETYPE" speedFactor="0.91" vaporized=""/>
    <tripinfo id="pf_0.42_b0" depart="108.00" departLane="152839448#0_0" departPos="1.70" departSpeed="0.00" departDelay="35.00" arrival="455.00" arrivalLane="128643746#1_0" arrivalPos="15.76" arrivalSpeed="0.11" duration="347.00" routeLength="1138.02" waitingTime="20.00" waitingCount="5" stopTime="0.00" timeLoss="143.46" rerouteNo="1" devices="tripinfo_pf_0.42_b0 person_pf_0.42_b0" vType="DEFAULT_BIKETYPE" speedFactor="1.02" vaporized=""/>
    <tripinfo id="pf_0.43_b0" depart="111.00" departLane="152839448#0_0" departPos="1.70" departSpeed="0.00" departDelay="37.00" arrival="457.00" arrivalLane="128643746#1_0" arrivalPos="15.76" arrivalSpeed="0.82" duration="346.00" routeLength="1138.02" waitingTime="23.00" waitingCount="5" stopTime="0.00" timeLoss="107.17" rerouteNo="1" devices="tripinfo_pf_0.43_b0 person_pf_0.43_b0" vType="DEFAULT_BIKETYPE" speedFactor="0.87" vaporized=""/>
    <tripinfo id="pf_0.44_b0" depart="113.00" departLane="152839448#0_0" departPos="1.70" departSpeed="0.00" departDelay="39.00" arrival="460.00" arrivalLane="128643746#1_0" arrivalPos="15.76" arrivalSpeed="0.19" duration="347.00" routeLength="1138.02" waitingTime="19.00" waitingCount="4" stopTime="0.00" timeLoss="155.16" rerouteNo="1" devices="tripinfo_pf_0.44_b0 person_pf_0.44_b0" vType="DEFAULT_BIKETYPE" speedFactor="1.08" vaporized=""/>
    <tripinfo id="pf_0.47_b0" depart="121.00" departLane="152839448#0_0" departPos="1.70" departSpeed="0.00" departDelay="24.00" arrival="463.00" arrivalLane="128643746#1_0" arrivalPos="15.76" arrivalSpeed="0.13" duration="342.00" routeLength="1138.02" waitingTime="15.00" waitingCount="4" stopTime="0.00" timeLoss="146.83" rerouteNo="1" devices="tripinfo_pf_0.47_b0 person_pf_0.47_b0" vType="DEFAULT_BIKETYPE" speedFactor="1.07" vaporized=""/>
    <tripinfo id="pf_0.45_b0" depart="116.00" departLane="152839448#0_0" departPos="1.70" departSpeed="0.00" departDelay="31.00" arrival="465.00" arrivalLane="128643746#1_0" arrivalPos="15.76" arrivalSpeed="0.96" duration="349.00" routeLength="1138.02" waitingTime="13.00" waitingCount="4" stopTime="0.00" timeLoss="128.87" rerouteNo="1" devices="tripinfo_pf_0.45_b0 person_pf_0.45_b0" vType="DEFAULT_BIKETYPE" speedFactor="0.94" vaporized=""/>
    <tripinfo id="pf_0.46_b0" depart="119.00" departLane="152839448#0_0" departPos="1.70" departSpeed="0.00" departDelay="25.00" arrival="467.00" arrivalLane="128643746#1_0" arrivalPos="15.76" arrivalSpeed="0.58" duration="348.00" routeLength="1138.02" waitingTime="12.00" waitingCount="5" stopTime="0.00" timeLoss="149.20" rerouteNo="1" devices="tripinfo_pf_0.46_b0 person_pf_0.46_b0" vType="DEFAULT_BIKETYPE" speedFactor="1.04" vaporized=""/>
    <tripinfo id="pf_0.52_b0" depart="134.00" departLane="152839448#0_0" departPos="1.70" departSpeed="0.00" departDelay="32.00" arrival="469.00" arrivalLane="128643746#1_0" arrivalPos="15.76" arrivalSpeed="0.48" duration="335.00" routeLength="1138.02" waitingTime="9.00" waitingCount="3" stopTime="0.00" timeLoss="156.22" rerouteNo="1" devices="tripinfo_pf_0.52_b0 person_pf_0.52_b0" vType="DEFAULT_BIKETYPE" speedFactor="1.16" vaporized=""/>
    <tripinfo id="pf_0.48_b0" depart="124.00" departLane="152839448#0_0" departPos="1.70" departSpeed="0.00" departDelay="26.00" arrival="472.00" arrivalLane="128643746#1_0" arrivalPos="15.76" arrivalSpeed="0.10" duration="348.00" routeLength="1138.02" waitingTime="11.00" waitingCount="5" stopTime="0.00" timeLoss="162.74" rerouteNo="1" devices="tripinfo_pf_0.48_b0 person_pf_0.48_b0" vType="DEFAULT_BIKETYPE" speedFactor="1.12" vaporized=""/>
    <tripinfo id="pf_0.49_b0" depart="126.00" departLane="152839448#0_0" departPos="1.70" departSpeed="0.00" departDelay="27.00" arrival="474.00" arrivalLane="128643746#1_0" arrivalPos="15.76" arrivalSpeed="0.14" duration="348.00" routeLength="1138.02" waitingTime="9.00" waitingCount="4" stopTime="0.00" timeLoss="125.04" rerouteNo="1" devices="tripinfo_pf_0.49_b0 person_pf_0.49_b0" vType="DEFAULT_BIKETYPE" speedFactor="0.93" vaporized=""/>
    <tripinfo id="pf_0.50_b0" depart="129.00" departLane="152839448#0_0" departPos="1.70" departSpeed="0.00" departDelay="28.00" arrival="477.00" arrivalLane="128643746#1_0" arrivalPos="15.76" arrivalSpeed="0.16" duration="348.00" routeLength="1138.02" waitingTime="8.00" waitingCount="3" stopTime="0.00" timeLoss="125.39" rerouteNo="1" devices="tripinfo_pf_0.50_b0 person_pf_0.50_b0" vType="DEFAULT_BIKETYPE" speedFactor="0.93" vaporized=""/>
    <tripinfo id="pf_0.51_b0" depart="131.00" departLane="152839448#0_0" departPos="1.70" departSpeed="0.00" departDelay="30.00" arrival="480.00" arrivalLane="128643746#1_0" arrivalPos="15.76" arrivalSpeed="0.14" duration="349.00" routeLength="1138.02" waitingTime="7.00" waitingCount="3" stopTime="0.00" timeLoss="157.14" rerouteNo="1" devices="tripinfo_pf_0.51_b0 person_pf_0.51_b0" vType="DEFAULT_BIKETYPE" speedFactor="1.08" vaporized=""/>
    <tripinfo id="pf_0.53_b0" depart="138.00" departLane="152839448#0_0" departPos="1.70" departSpeed="0.00" departDelay="34.00" arrival="483.00" arrivalLane="128643746#1_0" arrivalPos="15.76" arrivalSpeed="0.25" duration="345.00" routeLength="1138.02" waitingTime="27.00" waitingCount="5" stopTime="0.00" timeLoss="125.07" rerouteNo="1" devices="tripinfo_pf_0.53_b0 person_pf_0.53_b0" vType="DEFAULT_BIKETYPE" speedFactor="0.95" vaporized=""/>
    <tripinfo id="pf_0.54_b0" depart="141.00" departLane="152839448#0_0" departPos="1.70" departSpeed="0.00" departDelay="34.00" arrival="486.00" arrivalLane="128643746#1_0" arrivalPos="15.76" arrivalSpeed="0.35" duration="345.00" routeLength="1138.02" waitingTime="24.00" waitingCount="5" stopTime="0.00" timeLoss="143.62" rerouteNo="1" devices="tripinfo_pf_0.54_b0 person_pf_0.54_b0" vType="DEFAULT_BIKETYPE" speedFactor="1.03" vaporized=""/>
    <tripinfo id="pf_0.55_b0" depart="143.00" departLane="152839448#0_0" departPos="1.70" departSpeed="0.00" departDelay="36.00" arrival="491.00" arrivalLane="128643746#1_0" arrivalPos="15.76" arrivalSpeed="0.08" duration="348.00" routeLength="1138.02" waitingTime="45.00" waitingCount="5" stopTime="0.00" timeLoss="134.31" rerouteNo="1" devices="tripinfo_pf_0.55_b0 person_pf_0.55_b0" vType="DEFAULT_BIKETYPE" speedFactor="0.97" vaporized=""/>
    <tripinfo id="pf_0.56_b0" depart="146.00" departLane="152839448#0_0" departPos="1.70" departSpeed="0.00" departDelay="36.00" arrival="495.00" arrivalLane="128643746#1_0" arrivalPos="15.76" arrivalSpeed="0.08" duration="349.00" routeLength="1138.02" waitingTime="42.00" waitingCount="6" stopTime="0.00" timeLoss="126.88" rerouteNo="1" devices="tripinfo_pf_0.56_b0 person_pf_0.56_b0" vType="DEFAULT_BIKETYPE" speedFactor="0.94" vaporized=""/>
    <tripinfo id="pf_0.57_b0" depart="148.00" departLane="152839448#0_0" departPos="1.70" departSpeed="0.00" departDelay="38.00" arrival="498.00" arrivalLane="128643746#1_0" arrivalPos="15.76" arrivalSpeed="0.31" duration="350.00" routeLength="1138.02" waitingTime="40.00" waitingCount="5" stopTime="0.00" timeLoss="126.98" rerouteNo="1" devices="tripinfo_pf_0.57_b0 person_pf_0.57_b0" vType="DEFAULT_BIKETYPE" speedFactor="0.93" vaporized=""/>
    <tripinfo id="pf_0.58_b0" depart="151.00" departLane="152839448#0_0" departPos="1.70" departSpeed="0.00" departDelay="40.00" arrival="500.00" arrivalLane="128643746#1_0" arrivalPos="15.76" arrivalSpeed="1.76" duration="349.00" routeLength="1138.02" waitingTime="34.00" waitingCount="2" stopTime="0.00" timeLoss="168.84" rerouteNo="1" devices="tripinfo_pf_0.58_b0 person_pf_0.58_b0" vType="DEFAULT_BIKETYPE" speedFactor="1.15" vaporized=""/>
    <tripinfo id="pf_0.59_b0" depart="153.00" departLane="152839448#0_0" departPos="1.70" departSpeed="0.00" departDelay="41.00" arrival="503.00" arrivalLane="128643746#1_0" arrivalPos="15.76" arrivalSpeed="0.30" duration="350.00" routeLength="1138.02" waitingTime="35.00" waitingCount="3" stopTime="0.00" timeLoss="161.77" rerouteNo="1" devices="tripinfo_pf_0.59_b0 person_pf_0.59_b0" vType="DEFAULT_BIKETYPE" speedFactor="1.10" vaporized=""/>
    <tripinfo id="pf_0.61_b0" depart="158.00" departLane="152839448#0_0" departPos="1.70" departSpeed="0.00" departDelay="40.00" arrival="506.00" arrivalLane="128643746#1_0" arrivalPos="15.76" arrivalSpeed="0.11" duration="348.00" routeLength="1138.02" waitingTime="33.00" waitingCount="3" stopTime="0.00" timeLoss="162.45" rerouteNo="1" devices="tripinfo_pf_0.61_b0 person_pf_0.61_b0" vType="DEFAULT_BIKETYPE" speedFactor="1.12" vaporized=""/>
    <tripinfo id="pf_0.60_b0" depart="156.00" departLane="152839448#0_0" departPos="1.70" departSpeed="0.00" departDelay="40.00" arrival="508.00" arrivalLane="128643746#1_0" arrivalPos="15.76" arrivalSpeed="0.53" duration="352.00" routeLength="1138.02" waitingTime="35.00" waitingCount="4" stopTime="0.00" timeLoss="99.94" rerouteNo="1" devices="tripinfo_pf_0.60_b0 person_pf_0.60_b0" vType="DEFAULT_BIKETYPE" speedFactor="0.82" vaporized=""/>
    <tripinfo id="pf_0.62_b0" depart="161.00" departLane="152839448#0_0" departPos="1.70" departSpeed="0.00" departDelay="43.00" arrival="511.00" arrivalLane="128643746#1_0" arrivalPos="15.76" arrivalSpeed="0.25" duration="350.00" routeLength="1138.02" waitingTime="31.00" waitingCount="2" stopTime="0.00" timeLoss="149.86" rerouteNo="1" devices="tripinfo_pf_0.62_b0 person_pf_0.62_b0" vType="DEFAULT_BIKETYPE" speedFactor="1.04" vaporized=""/>
    <tripinfo id="pf_0.63_b0" depart="163.00" departLane="152839448#0_0" departPos="1.70" departSpeed="0.00" departDelay="43.00" arrival="514.00" arrivalLane="128643746#1_0" arrivalPos="15.76" arrivalSpeed="0.33" duration="351.00" routeLength="1138.02" waitingTime="29.00" waitingCount="2" stopTime="0.00" timeLoss="106.88" rerouteNo="1" devices="tripinfo_pf_0.63_b0 person_pf_0.63_b0" vType="DEFAULT_BIKETYPE" speedFactor="0.85" vaporized=""/>