<?xml version="1.0" encoding="UTF-8"?>

<!-- generated on 2023-04-26 16:19:46 by Eclipse SUMO sumo Version 1.17.0
<configuration xmlns:xsi="http://www.w3.org/2001/XMLSchema-instance" xsi:noNamespaceSchemaLocation="http://sumo.dlr.de/xsd/sumoConfiguration.xsd">

    <input>
        <net-file value="C:\erdm_ja\sip-svn-trunk\papers\DLR\SUMO_Conference2023\tutorial\05_runMany.final\osm.net.xml.gz"/>
        <route-files value="C:\erdm_ja\sip-svn-trunk\papers\DLR\SUMO_Conference2023\tutorial\05_runMany.final\bikes.rou.xml"/>
    </input>

    <output>
        <output-prefix value="test2.sumocfg_0\3."/>
        <tripinfo-output value="C:\erdm_ja\sip-svn-trunk\papers\DLR\SUMO_Conference2023\tutorial\05_runMany.final\tripinfos.xml"/>
        <personinfo-output value="C:\erdm_ja\sip-svn-trunk\papers\DLR\SUMO_Conference2023\tutorial\05_runMany.final\personinfos.xml"/>
        <edgedata-output value="C:\erdm_ja\sip-svn-trunk\papers\DLR\SUMO_Conference2023\tutorial\05_runMany.final\edgedata.xml"/>
        <statistic-output value="C:\erdm_ja\sip-svn-trunk\papers\DLR\SUMO_Conference2023\tutorial\05_runMany.final\stats.xml"/>
    </output>

    <processing>
        <lateral-resolution value="0"/>
        <tls.actuated.jam-threshold value="30"/>
    </processing>

    <report>
        <no-step-log value="true"/>
    </report>

    <random_number>
        <seed value="3"/>
    </random_number>

</configuration>
-->

<tripinfos xmlns:xsi="http://www.w3.org/2001/XMLSchema-instance" xsi:noNamespaceSchemaLocation="http://sumo.dlr.de/xsd/tripinfo_file.xsd">
    <tripinfo id="pf_0.1_b0" depart="4.00" departLane="152839448#0_0" departPos="1.70" departSpeed="0.00" departDelay="2.00" arrival="297.00" arrivalLane="128643746#1_0" arrivalPos="15.76" arrivalSpeed="0.27" duration="293.00" routeLength="1138.02" waitingTime="41.00" waitingCount="3" stopTime="0.00" timeLoss="83.81" rerouteNo="1" devices="tripinfo_pf_0.1_b0 person_pf_0.1_b0" vType="DEFAULT_BIKETYPE" speedFactor="0.99" vaporized=""/>
    <tripinfo id="pf_0.0_b0" depart="2.00" departLane="152839448#0_0" departPos="1.70" departSpeed="0.00" departDelay="0.00" arrival="311.00" arrivalLane="128643746#1_0" arrivalPos="15.76" arrivalSpeed="0.40" duration="309.00" routeLength="1138.02" waitingTime="44.00" waitingCount="3" stopTime="0.00" timeLoss="77.56" rerouteNo="1" devices="tripinfo_pf_0.0_b0 person_pf_0.0_b0" vType="DEFAULT_BIKETYPE" speedFactor="0.90" vaporized=""/>
    <tripinfo id="pf_0.2_b0" depart="7.00" departLane="152839448#0_0" departPos="1.70" departSpeed="0.00" departDelay="4.00" arrival="313.00" arrivalLane="128643746#1_0" arrivalPos="15.76" arrivalSpeed="0.21" duration="306.00" routeLength="1138.02" waitingTime="38.00" waitingCount="3" stopTime="0.00" timeLoss="95.58" rerouteNo="1" devices="tripinfo_pf_0.2_b0 person_pf_0.2_b0" vType="DEFAULT_BIKETYPE" speedFactor="0.99" vaporized=""/>
    <tripinfo id="pf_0.3_b0" depart="9.00" departLane="152839448#0_0" departPos="1.70" departSpeed="0.00" departDelay="4.00" arrival="318.00" arrivalLane="128643746#1_0" arrivalPos="15.76" arrivalSpeed="0.08" duration="309.00" routeLength="1138.02" waitingTime="39.00" waitingCount="3" stopTime="0.00" timeLoss="81.96" rerouteNo="1" devices="tripinfo_pf_0.3_b0 person_pf_0.3_b0" vType="DEFAULT_BIKETYPE" speedFactor="0.91" vaporized=""/>
    <tripinfo id="pf_0.5_b0" depart="14.00" departLane="152839448#0_0" departPos="1.70" departSpeed="0.00" departDelay="2.00" arrival="322.00" arrivalLane="128643746#1_0" arrivalPos="15.76" arrivalSpeed="0.10" duration="308.00" routeLength="1138.02" waitingTime="36.00" waitingCount="4" stopTime="0.00" timeLoss="102.98" rerouteNo="1" devices="tripinfo_pf_0.5_b0 person_pf_0.5_b0" vType="DEFAULT_BIKETYPE" speedFactor="1.01" vaporized=""/>
    <tripinfo id="pf_0.4_b0" depart="12.00" departLane="152839448#0_0" departPos="1.70" departSpeed="0.00" departDelay="1.00" arrival="326.00" arrivalLane="128643746#1_0" arrivalPos="15.76" arrivalSpeed="0.10" duration="314.00" routeLength="1138.02" waitingTime="37.00" waitingCount="3" stopTime="0.00" timeLoss="83.88" rerouteNo="1" devices="tripinfo_pf_0.4_b0 person_pf_0.4_b0" vType="DEFAULT_BIKETYPE" speedFactor="0.90" vaporized=""/>
    <tripinfo id="pf_0.6_b0" depart="17.00" departLane="152839448#0_0" departPos="1.70" departSpeed="0.00" departDelay="4.00" arrival="329.00" arrivalLane="128643746#1_0" arrivalPos="15.76" arrivalSpeed="0.20" duration="312.00" routeLength="1138.02" waitingTime="34.00" waitingCount="2" stopTime="0.00" timeLoss="94.22" rerouteNo="1" devices="tripinfo_pf_0.6_b0 person_pf_0.6_b0" vType="DEFAULT_BIKETYPE" speedFactor="0.95" vaporized=""/>
    <tripinfo id="pf_0.7_b0" depart="19.00" departLane="152839448#0_0" departPos="1.70" departSpeed="0.00" departDelay="4.00" arrival="333.00" arrivalLane="128643746#1_0" arrivalPos="15.76" arrivalSpeed="0.10" duration="314.00" routeLength="1138.02" waitingTime="34.00" waitingCount="2" stopTime="0.00" timeLoss="101.67" rerouteNo="1" devices="tripinfo_pf_0.7_b0 person_pf_0.7_b0" vType="DEFAULT_BIKETYPE" speedFactor="0.98" vaporized=""/>
    <tripinfo id="pf_0.8_b0" depart="22.00" departLane="152839448#0_0" departPos="1.70" departSpeed="0.00" departDelay="6.00" arrival="337.00" arrivalLane="128643746#1_0" arrivalPos="15.76" arrivalSpeed="0.06" duration="315.00" routeLength="1138.02" waitingTime="34.00" waitingCount="4" stopTime="0.00" timeLoss="124.79" rerouteNo="1" devices="tripinfo_pf_0.8_b0 person_pf_0.8_b0" vType="DEFAULT_BIKETYPE" speedFactor="1.09" vaporized=""/>
    <tripinfo id="pf_0.10_b0" depart="27.00" departLane="152839448#0_0" departPos="1.70" departSpeed="0.00" departDelay="9.00" arrival="341.00" arrivalLane="128643746#1_0" arrivalPos="15.76" arrivalSpeed="0.13" duration="314.00" routeLength="1138.02" waitingTime="34.00" waitingCount="2" stopTime="0.00" timeLoss="122.73" rerouteNo="1" devices="tripinfo_pf_0.10_b0 person_pf_0.10_b0" vType="DEFAULT_BIKETYPE" speedFactor="1.09" vaporized=""/>
    <tripinfo id="pf_0.9_b0" depart="25.00" departLane="152839448#0_0" departPos="1.70" departSpeed="0.00" departDelay="9.00" arrival="344.00" arrivalLane="128643746#1_0" arrivalPos="15.76" arrivalSpeed="0.21" duration="319.00" routeLength="1138.02" waitingTime="32.00" waitingCount="1" stopTime="0.00" timeLoss="90.96" rerouteNo="1" devices="tripinfo_pf_0.9_b0 person_pf_0.9_b0" vType="DEFAULT_BIKETYPE" speedFactor="0.91" vaporized=""/>
    <tripinfo id="pf_0.11_b0" depart="29.00" departLane="152839448#0_0" departPos="1.70" departSpeed="0.00" departDelay="9.00" arrival="347.00" arrivalLane="128643746#1_0" arrivalPos="15.76" arrivalSpeed="0.26" duration="318.00" routeLength="1138.02" waitingTime="33.00" waitingCount="2" stopTime="0.00" timeLoss="130.90" rerouteNo="1" devices="tripinfo_pf_0.11_b0 person_pf_0.11_b0" vType="DEFAULT_BIKETYPE" speedFactor="1.11" vaporized=""/>
    <tripinfo id="pf_0.12_b0" depart="32.00" departLane="152839448#0_0" departPos="1.70" departSpeed="0.00" departDelay="10.00" arrival="350.00" arrivalLane="128643746#1_0" arrivalPos="15.76" arrivalSpeed="0.12" duration="318.00" routeLength="1138.02" waitingTime="32.00" waitingCount="2" stopTime="0.00" timeLoss="120.79" rerouteNo="1" devices="tripinfo_pf_0.12_b0 person_pf_0.12_b0" vType="DEFAULT_BIKETYPE" speedFactor="1.05" vaporized=""/>
    <tripinfo id="pf_0.14_b0" depart="37.00" departLane="152839448#0_0" departPos="1.70" departSpeed="0.00" departDelay="13.00" arrival="354.00" arrivalLane="128643746#1_0" arrivalPos="15.76" arrivalSpeed="0.14" duration="317.00" routeLength="1138.02" waitingTime="31.00" waitingCount="1" stopTime="0.00" timeLoss="117.83" rerouteNo="1" devices="tripinfo_pf_0.14_b0 person_pf_0.14_b0" vType="DEFAULT_BIKETYPE" speedFactor="1.04" vaporized=""/>
    <tripinfo id="pf_0.13_b0" depart="34.00" departLane="152839448#0_0" departPos="1.70" departSpeed="0.00" departDelay="11.00" arrival="356.00" arrivalLane="128643746#1_0" arrivalPos="15.76" arrivalSpeed="1.48" duration="322.00" routeLength="1138.02" waitingTime="30.00" waitingCount="1" stopTime="0.00" timeLoss="130.71" rerouteNo="1" devices="tripinfo_pf_0.13_b0 person_pf_0.13_b0" vType="DEFAULT_BIKETYPE" speedFactor="1.09" vaporized=""/>
    <tripinfo id="pf_0.15_b0" depart="39.00" departLane="152839448#0_0" departPos="1.70" departSpeed="0.00" departDelay="13.00" arrival="359.00" arrivalLane="128643746#1_0" arrivalPos="15.76" arrivalSpeed="0.37" duration="320.00" routeLength="1138.02" waitingTime="31.00" waitingCount="1" stopTime="0.00" timeLoss="151.63" rerouteNo="1" devices="tripinfo_pf_0.15_b0 person_pf_0.15_b0" vType="DEFAULT_BIKETYPE" speedFactor="1.23" vaporized=""/>
    <tripinfo id="pf_0.16_b0" depart="42.00" departLane="152839448#0_0" departPos="1.70" departSpeed="0.00" departDelay="14.00" arrival="362.00" arrivalLane="128643746#1_0" arrivalPos="15.76" arrivalSpeed="0.17" duration="320.00" routeLength="1138.02" waitingTime="30.00" waitingCount="1" stopTime="0.00" timeLoss="109.91" rerouteNo="1" devices="tripinfo_pf_0.16_b0 person_pf_0.16_b0" vType="DEFAULT_BIKETYPE" speedFactor="0.99" vaporized=""/>
    <tripinfo id="pf_0.17_b0" depart="44.00" departLane="152839448#0_0" departPos="1.70" departSpeed="0.00" departDelay="8.00" arrival="365.00" arrivalLane="128643746#1_0" arrivalPos="15.76" arrivalSpeed="0.32" duration="321.00" routeLength="1138.02" waitingTime="49.00" waitingCount="2" stopTime="0.00" timeLoss="127.55" rerouteNo="1" devices="tripinfo_pf_0.17_b0 person_pf_0.17_b0" vType="DEFAULT_BIKETYPE" speedFactor="1.07" vaporized=""/>
    <tripinfo id="pf_0.18_b0" depart="47.00" departLane="152839448#0_0" departPos="1.70" departSpeed="0.00" departDelay="11.00" arrival="368.00" arrivalLane="128643746#1_0" arrivalPos="15.76" arrivalSpeed="0.34" duration="321.00" routeLength="1138.02" waitingTime="50.00" waitingCount="3" stopTime="0.00" timeLoss="93.19" rerouteNo="1" devices="tripinfo_pf_0.18_b0 person_pf_0.18_b0" vType="DEFAULT_BIKETYPE" speedFactor="0.91" vaporized=""/>
    <tripinfo id="pf_0.19_b0" depart="50.00" departLane="152839448#0_0" departPos="1.70" departSpeed="0.00" departDelay="12.00" arrival="371.00" arrivalLane="128643746#1_0" arrivalPos="15.76" arrivalSpeed="0.19" duration="321.00" routeLength="1138.02" waitingTime="47.00" waitingCount="3" stopTime="0.00" timeLoss="101.53" rerouteNo="1" devices="tripinfo_pf_0.19_b0 person_pf_0.19_b0" vType="DEFAULT_BIKETYPE" speedFactor="0.95" vaporized=""/>
    <tripinfo id="pf_0.20_b0" depart="52.00" departLane="152839448#0_0" departPos="1.70" departSpeed="0.00" departDelay="9.00" arrival="373.00" arrivalLane="128643746#1_0" arrivalPos="15.76" arrivalSpeed="1.30" duration="321.00" routeLength="1138.02" waitingTime="43.00" waitingCount="3" stopTime="0.00" timeLoss="108.77" rerouteNo="1" devices="tripinfo_pf_0.20_b0 person_pf_0.20_b0" vType="DEFAULT_BIKETYPE" speedFactor="0.98" vaporized=""/>
    <tripinfo id="pf_0.21_b0" depart="55.00" departLane="152839448#0_0" departPos="1.70" departSpeed="0.00" departDelay="12.00" arrival="375.00" arrivalLane="128643746#1_0" arrivalPos="15.76" arrivalSpeed="0.95" duration="320.00" routeLength="1138.02" waitingTime="42.00" waitingCount="3" stopTime="0.00" timeLoss="105.23" rerouteNo="1" devices="tripinfo_pf_0.21_b0 person_pf_0.21_b0" vType="DEFAULT_BIKETYPE" speedFactor="0.97" vaporized=""/>
    <tripinfo id="pf_0.23_b0" depart="60.00" departLane="152839448#0_0" departPos="1.70" departSpeed="0.00" departDelay="14.00" arrival="379.00" arrivalLane="128643746#1_0" arrivalPos="15.76" arrivalSpeed="0.09" duration="319.00" routeLength="1138.02" waitingTime="41.00" waitingCount="4" stopTime="0.00" timeLoss="101.95" rerouteNo="1" devices="tripinfo_pf_0.23_b0 person_pf_0.23_b0" vType="DEFAULT_BIKETYPE" speedFactor="0.96" vaporized=""/>
    <tripinfo id="pf_0.22_b0" depart="58.00" departLane="152839448#0_0" departPos="1.70" departSpeed="0.00" departDelay="13.00" arrival="382.00" arrivalLane="128643746#1_0" arrivalPos="15.76" arrivalSpeed="0.23" duration="324.00" routeLength="1138.02" waitingTime="43.00" waitingCount="3" stopTime="0.00" timeLoss="120.33" rerouteNo="1" devices="tripinfo_pf_0.22_b0 person_pf_0.22_b0" vType="DEFAULT_BIKETYPE" speedFactor="1.02" vaporized=""/>
    <tripinfo id="pf_0.24_b0" depart="62.00" departLane="152839448#0_0" departPos="1.70" departSpeed="0.00" departDelay="13.00" arrival="384.00" arrivalLane="128643746#1_0" arrivalPos="15.76" arrivalSpeed="0.63" duration="322.00" routeLength="1138.02" waitingTime="39.00" waitingCount="3" stopTime="0.00" timeLoss="117.95" rerouteNo="1" devices="tripinfo_pf_0.24_b0 person_pf_0.24_b0" vType="DEFAULT_BIKETYPE" speedFactor="1.02" vaporized=""/>
    <tripinfo id="pf_0.26_b0" depart="67.00" departLane="152839448#0_0" departPos="1.70" departSpeed="0.00" departDelay="14.00" arrival="386.00" arrivalLane="128643746#1_0" arrivalPos="15.76" arrivalSpeed="0.18" duration="319.00" routeLength="1138.02" waitingTime="26.00" waitingCount="4" stopTime="0.00" timeLoss="115.78" rerouteNo="1" devices="tripinfo_pf_0.26_b0 person_pf_0.26_b0" vType="DEFAULT_BIKETYPE" speedFactor="1.02" vaporized=""/>
    <tripinfo id="pf_0.25_b0" depart="64.00" departLane="152839448#0_0" departPos="1.70" departSpeed="0.00" departDelay="12.00" arrival="389.00" arrivalLane="128643746#1_0" arrivalPos="15.76" arrivalSpeed="0.14" duration="325.00" routeLength="1138.02" waitingTime="29.00" waitingCount="4" stopTime="0.00" timeLoss="82.71" rerouteNo="1" devices="tripinfo_pf_0.25_b0 person_pf_0.25_b0" vType="DEFAULT_BIKETYPE" speedFactor="0.86" vaporized=""/>
    <tripinfo id="pf_0.28_b0" depart="72.00" departLane="152839448#0_0" departPos="1.70" departSpeed="0.00" departDelay="17.00" arrival="392.00" arrivalLane="128643746#1_0" arrivalPos="15.76" arrivalSpeed="0.18" duration="320.00" routeLength="1138.02" waitingTime="28.00" waitingCount="3" stopTime="0.00" timeLoss="155.76" rerouteNo="1" devices="tripinfo_pf_0.28_b0 person_pf_0.28_b0" vType="DEFAULT_BIKETYPE" speedFactor="1.26" vaporized=""/>
    <tripinfo id="pf_0.27_b0" depart="70.00" departLane="152839448#0_0" departPos="1.70" departSpeed="0.00" departDelay="17.00" arrival="395.00" arrivalLane="128643746#1_0" arrivalPos="15.76" arrivalSpeed="0.42" duration="325.00" routeLength="1138.02" waitingTime="24.00" waitingCount="3" stopTime="0.00" timeLoss="111.47" rerouteNo="1" devices="tripinfo_pf_0.27_b0 person_pf_0.27_b0" vType="DEFAULT_BIKETYPE" speedFactor="0.97" vaporized=""/>
    <tripinfo id="pf_0.29_b0" depart="75.00" departLane="152839448#0_0" departPos="1.70" departSpeed="0.00" departDelay="14.00" arrival="397.00" arrivalLane="128643746#1_0" arrivalPos="15.76" arrivalSpeed="0.76" duration="322.00" routeLength="1138.02" waitingTime="25.00" waitingCount="3" stopTime="0.00" timeLoss="119.17" rerouteNo="1" devices="tripinfo_pf_0.29_b0 person_pf_0.29_b0" vType="DEFAULT_BIKETYPE" speedFactor="1.02" vaporized=""/>
    <tripinfo id="pf_0.30_b0" depart="81.00" departLane="152839448#0_0" departPos="1.70" departSpeed="0.00" departDelay="17.00" arrival="400.00" arrivalLane="128643746#1_0" arrivalPos="15.76" arrivalSpeed="0.32" duration="319.00" routeLength="1138.02" waitingTime="23.00" waitingCount="3" stopTime="0.00" timeLoss="73.29" rerouteNo="1" devices="tripinfo_pf_0.30_b0 person_pf_0.30_b0" vType="DEFAULT_BIKETYPE" speedFactor="0.85" vaporized=""/>
    <tripinfo id="pf_0.32_b0" depart="86.00" departLane="152839448#0_0" departPos="1.70" departSpeed="0.00" departDelay="20.00" arrival="403.00" arrivalLane="128643746#1_0" arrivalPos="15.76" arrivalSpeed="0.08" duration="317.00" routeLength="1138.02" waitingTime="23.00" waitingCount="4" stopTime="0.00" timeLoss="103.39" rerouteNo="1" devices="tripinfo_pf_0.32_b0 person_pf_0.32_b0" vType="DEFAULT_BIKETYPE" speedFactor="0.97" vaporized=""/>
    <tripinfo id="pf_0.31_b0" depart="84.00" departLane="152839448#0_0" departPos="1.70" departSpeed="0.00" departDelay="20.00" arrival="405.00" arrivalLane="128643746#1_0" arrivalPos="15.76" arrivalSpeed="0.70" duration="321.00" routeLength="1138.02" waitingTime="21.00" waitingCount="3" stopTime="0.00" timeLoss="93.07" rerouteNo="1" devices="tripinfo_pf_0.31_b0 person_pf_0.31_b0" vType="DEFAULT_BIKETYPE" speedFactor="0.91" vaporized=""/>
    <tripinfo id="pf_0.33_b0" depart="89.00" departLane="152839448#0_0" departPos="1.70" departSpeed="0.00" departDelay="21.00" arrival="407.00" arrivalLane="128643746#1_0" arrivalPos="15.76" arrivalSpeed="1.81" duration="318.00" routeLength="1138.02" waitingTime="20.00" waitingCount="3" stopTime="0.00" timeLoss="92.30" rerouteNo="1" devices="tripinfo_pf_0.33_b0 person_pf_0.33_b0" vType="DEFAULT_BIKETYPE" speedFactor="0.92" vaporized=""/>
    <tripinfo id="pf_0.35_b0" depart="94.00" departLane="152839448#0_0" departPos="1.70" departSpeed="0.00" departDelay="25.00" arrival="411.00" arrivalLane="128643746#1_0" arrivalPos="15.76" arrivalSpeed="0.09" duration="317.00" routeLength="1138.02" waitingTime="20.00" waitingCount="4" stopTime="0.00" timeLoss="89.08" rerouteNo="1" devices="tripinfo_pf_0.35_b0 person_pf_0.35_b0" vType="DEFAULT_BIKETYPE" speedFactor="0.91" vaporized=""/>
    <tripinfo id="pf_0.37_b0" depart="99.00" departLane="152839448#0_0" departPos="1.70" departSpeed="0.00" departDelay="27.00" arrival="415.00" arrivalLane="128643746#1_0" arrivalPos="15.76" arrivalSpeed="0.07" duration="316.00" routeLength="1138.02" waitingTime="15.00" waitingCount="3" stopTime="0.00" timeLoss="83.11" rerouteNo="1" devices="tripinfo_pf_0.37_b0 person_pf_0.37_b0" vType="DEFAULT_BIKETYPE" speedFactor="0.89" vaporized=""/>
    <tripinfo id="pf_0.34_b0" depart="92.00" departLane="152839448#0_0" departPos="1.70" departSpeed="0.00" departDelay="24.00" arrival="417.00" arrivalLane="128643746#1_0" arrivalPos="15.76" arrivalSpeed="1.17" duration="325.00" routeLength="1138.02" waitingTime="19.00" waitingCount="3" stopTime="0.00" timeLoss="164.22" rerouteNo="1" devices="tripinfo_pf_0.34_b0 person_pf_0.34_b0" vType="DEFAULT_BIKETYPE" speedFactor="1.29" vaporized=""/>
    <tripinfo id="pf_0.36_b0" depart="97.00" departLane="152839448#0_0" departPos="1.70" departSpeed="0.00" departDelay="26.00" arrival="421.00" arrivalLane="128643746#1_0" arrivalPos="15.76" arrivalSpeed="0.08" duration="324.00" routeLength="1138.02" waitingTime="17.00" waitingCount="4" stopTime="0.00" timeLoss="127.04" rerouteNo="1" devices="tripinfo_pf_0.36_b0 person_pf_0.36_b0" vType="DEFAULT_BIKETYPE" speedFactor="1.06" vaporized=""/>
    <tripinfo id="pf_0.38_b0" depart="101.00" departLane="152839448#0_0" departPos="1.70" departSpeed="0.00" departDelay="28.00" arrival="424.00" arrivalLane="128643746#1_0" arrivalPos="15.76" arrivalSpeed="0.23" duration="323.00" routeLength="1138.02" waitingTime="12.00" waitingCount="2" stopTime="0.00" timeLoss="102.84" rerouteNo="1" devices="tripinfo_pf_0.38_b0 person_pf_0.38_b0" vType="DEFAULT_BIKETYPE" speedFactor="0.94" vaporized=""/>
    <tripinfo id="pf_0.39_b0" depart="103.00" departLane="152839448#0_0" departPos="1.70" departSpeed="0.00" departDelay="29.00" arrival="427.00" arrivalLane="128643746#1_0" arrivalPos="15.76" arrivalSpeed="0.14" duration="324.00" routeLength="1138.02" waitingTime="13.00" waitingCount="3" stopTime="0.00" timeLoss="121.05" rerouteNo="1" devices="tripinfo_pf_0.39_b0 person_pf_0.39_b0" vType="DEFAULT_BIKETYPE" speedFactor="1.02" vaporized=""/>
    <tripinfo id="pf_0.41_b0" depart="108.00" departLane="152839448#0_0" departPos="1.70" departSpeed="0.00" departDelay="28.00" arrival="431.00" arrivalLane="128643746#1_0" arrivalPos="15.76" arrivalSpeed="0.25" duration="323.00" routeLength="1138.02" waitingTime="12.00" waitingCount="2" stopTime="0.00" timeLoss="99.25" rerouteNo="1" devices="tripinfo_pf_0.41_b0 person_pf_0.41_b0" vType="DEFAULT_BIKETYPE" speedFactor="0.93" vaporized=""/>
    <tripinfo id="pf_0.40_b0" depart="106.00" departLane="152839448#0_0" departPos="1.70" departSpeed="0.00" departDelay="26.00" arrival="434.00" arrivalLane="128643746#1_0" arrivalPos="15.76" arrivalSpeed="0.17" duration="328.00" routeLength="1138.02" waitingTime="12.00" waitingCount="2" stopTime="0.00" timeLoss="104.12" rerouteNo="1" devices="tripinfo_pf_0.40_b0 person_pf_0.40_b0" vType="DEFAULT_BIKETYPE" speedFactor="0.93" vaporized=""/>
    <tripinfo id="pf_0.42_b0" depart="111.00" departLane="152839448#0_0" departPos="1.70" departSpeed="0.00" departDelay="30.00" arrival="437.00" arrivalLane="128643746#1_0" arrivalPos="15.76" arrivalSpeed="0.18" duration="326.00" routeLength="1138.02" waitingTime="10.00" waitingCount="2" stopTime="0.00" timeLoss="123.30" rerouteNo="1" devices="tripinfo_pf_0.42_b0 person_pf_0.42_b0" vType="DEFAULT_BIKETYPE" speedFactor="1.02" vaporized=""/>
    <tripinfo id="pf_0.43_b0" depart="113.00" departLane="152839448#0_0" departPos="1.70" departSpeed="0.00" departDelay="32.00" arrival="440.00" arrivalLane="128643746#1_0" arrivalPos="15.76" arrivalSpeed="0.32" duration="327.00" routeLength="1138.02" waitingTime="11.00" waitingCount="5" stopTime="0.00" timeLoss="149.32" rerouteNo="1" devices="tripinfo_pf_0.43_b0 person_pf_0.43_b0" vType="DEFAULT_BIKETYPE" speedFactor="1.17" vaporized=""/>
    <tripinfo id="pf_0.44_b0" depart="116.00" departLane="152839448#0_0" departPos="1.70" departSpeed="0.00" departDelay="29.00" arrival="443.00" arrivalLane="128643746#1_0" arrivalPos="15.76" arrivalSpeed="0.09" duration="327.00" routeLength="1138.02" waitingTime="10.00" waitingCount="4" stopTime="0.00" timeLoss="86.73" rerouteNo="1" devices="tripinfo_pf_0.44_b0 person_pf_0.44_b0" vType="DEFAULT_BIKETYPE" speedFactor="0.86" vaporized=""/>
    <tripinfo id="pf_0.45_b0" depart="118.00" departLane="152839448#0_0" departPos="1.70" departSpeed="0.00" departDelay="28.00" arrival="446.00" arrivalLane="128643746#1_0" arrivalPos="15.76" arrivalSpeed="0.09" duration="328.00" routeLength="1138.02" waitingTime="27.00" waitingCount="5" stopTime="0.00" timeLoss="104.90" rerouteNo="1" devices="tripinfo_pf_0.45_b0 person_pf_0.45_b0" vType="DEFAULT_BIKETYPE" speedFactor="0.93" vaporized=""/>
    <tripinfo id="pf_0.46_b0" depart="121.00" departLane="152839448#0_0" departPos="1.70" departSpeed="0.00" departDelay="27.00" arrival="448.00" arrivalLane="128643746#1_0" arrivalPos="15.76" arrivalSpeed="0.16" duration="327.00" routeLength="1138.02" waitingTime="58.00" waitingCount="4" stopTime="0.00" timeLoss="142.24" rerouteNo="1" devices="tripinfo_pf_0.46_b0 person_pf_0.46_b0" vType="DEFAULT_BIKETYPE" speedFactor="1.12" vaporized=""/>
    <tripinfo id="pf_0.48_b0" depart="126.00" departLane="152839448#0_0" departPos="1.70" departSpeed="0.00" departDelay="27.00" arrival="450.00" arrivalLane="128643746#1_0" arrivalPos="15.76" arrivalSpeed="0.22" duration="324.00" routeLength="1138.02" waitingTime="48.00" waitingCount="3" stopTime="0.00" timeLoss="149.65" rerouteNo="1" devices="tripinfo_pf_0.48_b0 person_pf_0.48_b0" vType="DEFAULT_BIKETYPE" speedFactor="1.19" vaporized=""/>
    <tripinfo id="pf_0.47_b0" depart="123.00" departLane="152839448#0_0" departPos="1.70" departSpeed="0.00" departDelay="24.00" arrival="459.00" arrivalLane="128643746#1_0" arrivalPos="15.76" arrivalSpeed="0.37" duration="336.00" routeLength="1138.02" waitingTime="60.00" waitingCount="5" stopTime="0.00" timeLoss="113.50" rerouteNo="1" devices="tripinfo_pf_0.47_b0 person_pf_0.47_b0" vType="DEFAULT_BIKETYPE" speedFactor="0.93" vaporized=""/>
    <tripinfo id="pf_0.49_b0" depart="129.00" departLane="152839448#0_0" departPos="1.70" departSpeed="0.00" departDelay="27.00" arrival="460.00" arrivalLane="128643746#1_0" arrivalPos="15.76" arrivalSpeed="2.73" duration="331.00" routeLength="1138.02" waitingTime="53.00" waitingCount="5" stopTime="0.00" timeLoss="135.61" rerouteNo="1" devices="tripinfo_pf_0.49_b0 person_pf_0.49_b0" vType="DEFAULT_BIKETYPE" speedFactor="1.06" vaporized=""/>
    <tripinfo id="pf_0.50_b0" depart="131.00" departLane="152839448#0_0" departPos="1.70" departSpeed="0.00" departDelay="27.00" arrival="469.00" arrivalLane="128643746#1_0" arrivalPos="15.76" arrivalSpeed="0.35" duration="338.00" routeLength="1138.02" waitingTime="51.00" waitingCount="6" stopTime="0.00" timeLoss="101.02" rerouteNo="1" devices="tripinfo_pf_0.50_b0 person_pf_0.50_b0" vType="DEFAULT_BIKETYPE" speedFactor="0.88" vaporized=""/>
    <tripinfo id="pf_0.51_b0" depart="135.00" departLane="152839448#0_0" departPos="1.70" departSpeed="0.00" departDelay="30.00" arrival="472.00" arrivalLane="128643746#1_0" arrivalPos="15.76" arrivalSpeed="0.14" duration="337.00" routeLength="1138.02" waitingTime="47.00" waitingCount="4" stopTime="0.00" timeLoss="142.51" rerouteNo="1" devices="tripinfo_pf_0.51_b0 person_pf_0.51_b0" vType="DEFAULT_BIKETYPE" speedFactor="1.07" vaporized=""/>
    <tripinfo id="pf_0.52_b0" depart="138.00" departLane="152839448#0_0" departPos="1.70" departSpeed="0.00" departDelay="33.00" arrival="475.00" arrivalLane="128643746#1_0" arrivalPos="15.76" arrivalSpeed="0.21" duration="337.00" routeLength="1138.02" waitingTime="47.00" waitingCount="4" stopTime="0.00" timeLoss="131.83" rerouteNo="1" devices="tripinfo_pf_0.52_b0 person_pf_0.52_b0" vType="DEFAULT_BIKETYPE" speedFactor="1.01" vaporized=""/>
    <tripinfo id="pf_0.54_b0" depart="143.00" departLane="152839448#0_0" departPos="1.70" departSpeed="0.00" departDelay="37.00" arrival="479.00" arrivalLane="128643746#1_0" arrivalPos="15.76" arrivalSpeed="0.17" duration="336.00" routeLength="1138.02" waitingTime="49.00" waitingCount="4" stopTime="0.00" timeLoss="120.48" rerouteNo="1" devices="tripinfo_pf_0.54_b0 person_pf_0.54_b0" vType="DEFAULT_BIKETYPE" speedFactor="0.96" vaporized=""/>
    <tripinfo id="pf_0.53_b0" depart="141.00" departLane="152839448#0_0" departPos="1.70" departSpeed="0.00" departDelay="35.00" arrival="482.00" arrivalLane="128643746#1_0" arrivalPos="15.76" arrivalSpeed="0.25" duration="341.00" routeLength="1138.02" waitingTime="45.00" waitingCount="4" stopTime="0.00" timeLoss="87.61" rerouteNo="1" devices="tripinfo_pf_0.53_b0 person_pf_0.53_b0" vType="DEFAULT_BIKETYPE" speedFactor="0.82" vaporized=""/>
    <tripinfo id="pf_0.55_b0" depart="146.00" departLane="152839448#0_0" departPos="1.70" departSpeed="0.00" departDelay="40.00" arrival="483.00" arrivalLane="128643746#1_0" arrivalPos="15.76" arrivalSpeed="2.47" duration="337.00" routeLength="1138.02" waitingTime="43.00" waitingCount="4" stopTime="0.00" timeLoss="129.38" rerouteNo="1" devices="tripinfo_pf_0.55_b0 person_pf_0.55_b0" vType="DEFAULT_BIKETYPE" speedFactor="1.00" vaporized=""/>
    <tripinfo id="pf_0.56_b0" depart="148.00" departLane="152839448#0_0" departPos="1.70" departSpeed="0.00" departDelay="40.00" arrival="487.00" arrivalLane="128643746#1_0" arrivalPos="15.76" arrivalSpeed="0.12" duration="339.00" routeLength="1138.02" waitingTime="43.00" waitingCount="3" stopTime="0.00" timeLoss="106.76" rerouteNo="1" devices="tripinfo_pf_0.56_b0 person_pf_0.56_b0" vType="DEFAULT_BIKETYPE" speedFactor="0.90" vaporized=""/>
    <tripinfo id="pf_0.57_b0" depart="151.00" departLane="152839448#0_0" departPos="1.70" departSpeed="0.00" departDelay="41.00" arrival="491.00" arrivalLane="128643746#1_0" arrivalPos="15.76" arrivalSpeed="0.11" duration="340.00" routeLength="1138.02" waitingTime="43.00" waitingCount="3" stopTime="0.00" timeLoss="101.23" rerouteNo="1" devices="tripinfo_pf_0.57_b0 person_pf_0.57_b0" vType="DEFAULT_BIKETYPE" speedFactor="0.87" vaporized=""/>
    <tripinfo id="pf_0.58_b0" depart="153.00" departLane="152839448#0_0" departPos="1.70" departSpeed="0.00" departDelay="40.00" arrival="495.00" arrivalLane="128643746#1_0" arrivalPos="15.76" arrivalSpeed="0.13" duration="342.00" routeLength="1138.02" waitingTime="40.00" waitingCount="3" stopTime="0.00" timeLoss="135.08" rerouteNo="1" devices="tripinfo_pf_0.58_b0 person_pf_0.58_b0" vType="DEFAULT_BIKETYPE" speedFactor="1.00" vaporized=""/>
    <tripinfo id="pf_0.60_b0" depart="158.00" departLane="152839448#0_0" departPos="1.70" departSpeed="0.00" departDelay="41.00" arrival="498.00" arrivalLane="128643746#1_0" arrivalPos="15.76" arrivalSpeed="0.17" duration="340.00" routeLength="1138.02" waitingTime="37.00" waitingCount="3" stopTime="0.00" timeLoss="104.20" rerouteNo="1" devices="tripinfo_pf_0.60_b0 person_pf_0.60_b0" vType="DEFAULT_BIKETYPE" speedFactor="0.88" vaporized=""/>
    <tripinfo id="pf_0.59_b0" depart="155.00" departLane="152839448#0_0" departPos="1.70" departSpeed="0.00" departDelay="39.00" arrival="501.00" arrivalLane="128643746#1_0" arrivalPos="15.76" arrivalSpeed="0.09" duration="346.00" routeLength="1138.02" waitingTime="41.00" waitingCount="5" stopTime="0.00" timeLoss="120.74" rerouteNo="1" devices="tripinfo_pf_0.59_b0 person_pf_0.59_b0" vType="DEFAULT_BIKETYPE" speedFactor="0.92" vaporized=""/>
    <tripinfo id="pf_0.61_b0" depart="160.00" departLane="152839448#0_0" departPos="1.70" departSpeed="0.00" departDelay="41.00" arrival="504.00" arrivalLane="128643746#1_0" arrivalPos="15.76" arrivalSpeed="0.18" duration="344.00" routeLength="1138.02" waitingTime="37.00" waitingCount="3" stopTime="0.00" timeLoss="137.15" rerouteNo="1" devices="tripinfo_pf_0.61_b0 person_pf_0.61_b0" vType="DEFAULT_BIKETYPE" speedFactor="1.00" vaporized=""/>
    <tripinfo id="pf_0.62_b0" depart="163.00" departLane="152839448#0_0" departPos="1.70" departSpeed="0.00" departDelay="44.00" arrival="507.00" arrivalLane="128643746#1_0" arrivalPos="15.76" arrivalSpeed="0.36" duration="344.00" routeLength="1138.02" waitingTime="36.00" waitingCount="3" stopTime="0.00" timeLoss="156.54" rerouteNo="1" devices="tripinfo_pf_0.62_b0 person_pf_0.62_b0" vType="DEFAULT_BIKETYPE" speedFactor="1.11" vaporized=""/>
    <tripinfo id="pf_0.63_b0" depart="165.00" departLane="152839448#0_0" departPos="1.70" departSpeed="0.00" departDelay="43.00" arrival="510.00" arrivalLane="128643746#1_0" arrivalPos="15.76" arrivalSpeed="0.17" duration="345.00" routeLength="1138.02" waitingTime="33.00" waitingCount="3" stopTime="0.00" timeLoss="153.63" rerouteNo="1" devices="tripinfo_pf_0.63_b0 person_pf_0.63_b0" vType="DEFAULT_BIKETYPE" speedFactor="1.09" vaporized=""/>