<?xml version="1.0" encoding="UTF-8"?>

<!-- generated on 10.05.2019 09:17:58 by Eclipse SUMO GUI Version v1_2_0+0280-89bb845180c
<configuration xmlns:xsi="http://www.w3.org/2001/XMLSchema-instance" xsi:noNamespaceSchemaLocation="http://sumo.dlr.de/xsd/sumoConfiguration.xsd">

    <input>
        <net-file value="D:\erdm_ja\sip-svn-trunk\papers\DLR\SUMO_Conference2019\tutorial\5_parking\osm.net.xml"/>
        <route-files value="D:\erdm_ja\sip-svn-trunk\papers\DLR\SUMO_Conference2019\tutorial\5_parking\osm_pt.rou.xml,D:\erdm_ja\sip-svn-trunk\papers\DLR\SUMO_Conference2019\tutorial\5_parking\osm.passenger.trips.xml,D:\erdm_ja\sip-svn-trunk\papers\DLR\SUMO_Conference2019\tutorial\5_parking\osm.pedestrian.rou.xml,D:\erdm_ja\sip-svn-trunk\papers\DLR\SUMO_Conference2019\tutorial\5_parking\custom.rou.xml"/>
        <additional-files value="D:\erdm_ja\sip-svn-trunk\papers\DLR\SUMO_Conference2019\tutorial\5_parking\osm.poly.xml,D:\erdm_ja\sip-svn-trunk\papers\DLR\SUMO_Conference2019\tutorial\5_parking\osm_stops.add.xml,D:\erdm_ja\sip-svn-trunk\papers\DLR\SUMO_Conference2019\tutorial\5_parking\edgedata.add.xml"/>
    </input>

    <processing>
        <ignore-route-errors value="true"/>
    </processing>

    <routing>
        <device.rerouting.adaptation-steps value="180"/>
    </routing>

    <report>
        <verbose value="true"/>
        <duration-log.statistics value="true"/>
        <no-step-log value="true"/>
    </report>

    <gui_only>
        <gui-settings-file value="D:\erdm_ja\sip-svn-trunk\papers\DLR\SUMO_Conference2019\tutorial\5_parking\osm.view.xml"/>
    </gui_only>

</configuration>
-->

<meandata xmlns:xsi="http://www.w3.org/2001/XMLSchema-instance" xsi:noNamespaceSchemaLocation="http://sumo.dlr.de/xsd/meandata_file.xsd">
    <interval begin="0.00" end="1451.00" id="pedData">
        <edge id="-114024899" sampledSeconds="0.00" departed="0" arrived="0" entered="0" left="0" laneChangedFrom="0" laneChangedTo="0"/>
        <edge id="-114024901" sampledSeconds="95.00" traveltime="95.00" overlapTraveltime="95.15" density="0.48" occupancy="0.00" waitingTime="0.00" speed="1.44" departed="1" arrived="0" entered="0" left="1" laneChangedFrom="0" laneChangedTo="0"/>
        <edge id="-114024903#0" sampledSeconds="5.00" traveltime="1.00" overlapTraveltime="2.08" density="17.23" occupancy="0.00" waitingTime="0.00" speed="0.20" departed="0" arrived="0" entered="5" left="5" laneChangedFrom="0" laneChangedTo="0"/>
        <edge id="-114024903#1" sampledSeconds="72.00" traveltime="14.40" overlapTraveltime="14.56" density="2.49" occupancy="0.00" waitingTime="0.00" speed="1.38" departed="0" arrived="0" entered="5" left="5" laneChangedFrom="0" laneChangedTo="0"/>
        <edge id="-114024903#2" sampledSeconds="164.00" traveltime="41.00" overlapTraveltime="41.12" density="1.55" occupancy="0.00" waitingTime="0.00" speed="1.78" departed="1" arrived="0" entered="4" left="4" laneChangedFrom="0" laneChangedTo="0"/>
        <edge id="-114024903#3" sampledSeconds="0.00" departed="0" arrived="0" entered="0" left="0" laneChangedFrom="0" laneChangedTo="0"/>
        <edge id="-114024903#4" sampledSeconds="2.00" traveltime="1.00" overlapTraveltime="1.02" density="0.14" occupancy="0.00" waitingTime="0.00" speed="10.15" departed="2" arrived="0" entered="0" left="2" laneChangedFrom="0" laneChangedTo="0"/>
        <edge id="-114024903#5" sampledSeconds="29.00" traveltime="7.25" overlapTraveltime="7.41" density="2.06" occupancy="0.00" waitingTime="0.00" speed="1.34" departed="1" arrived="0" entered="3" left="4" laneChangedFrom="0" laneChangedTo="0"/>
        <edge id="-114024903#6" sampledSeconds="4.00" traveltime="2.00" overlapTraveltime="2.14" density="0.90" occupancy="0.00" waitingTime="0.00" speed="1.52" departed="0" arrived="0" entered="2" left="2" laneChangedFrom="0" laneChangedTo="0"/>
        <edge id="-114024904" sampledSeconds="1.00" traveltime="1.00" overlapTraveltime="1.01" density="0.02" occupancy="0.00" waitingTime="0.00" speed="36.35" departed="1" arrived="0" entered="0" left="1" laneChangedFrom="0" laneChangedTo="0"/>
        <edge id="-114024905" sampledSeconds="0.00" departed="0" arrived="0" entered="0" left="0" laneChangedFrom="0" laneChangedTo="0"/>
        <edge id="-114024906" sampledSeconds="53.00" traveltime="26.50" overlapTraveltime="26.65" density="0.98" occupancy="0.00" waitingTime="0.00" speed="1.41" departed="0" arrived="0" entered="2" left="2" laneChangedFrom="0" laneChangedTo="0"/>
        <edge id="-114207225" sampledSeconds="1.00" traveltime="1.00" overlapTraveltime="3.15" density="6.89" occupancy="0.00" waitingTime="0.00" speed="0.10" departed="0" arrived="0" entered="1" left="1" laneChangedFrom="0" laneChangedTo="0"/>
        <edge id="-114207227" sampledSeconds="3.00" traveltime="1.50" overlapTraveltime="1.56" density="0.40" occupancy="0.00" waitingTime="0.00" speed="3.48" departed="0" arrived="2" entered="2" left="0" laneChangedFrom="0" laneChangedTo="0"/>
        <edge id="-114207229" sampledSeconds="3.00" traveltime="3.00" overlapTraveltime="3.09" density="0.30" occupancy="0.00" waitingTime="0.00" speed="2.32" departed="0" arrived="1" entered="1" left="0" laneChangedFrom="0" laneChangedTo="0"/>
        <edge id="-114207232#0" sampledSeconds="0.00" departed="0" arrived="2" entered="2" left="0" laneChangedFrom="0" laneChangedTo="0"/>
        <edge id="-114692703#0" sampledSeconds="4.00" traveltime="2.00" overlapTraveltime="2.05" density="0.32" occupancy="0.00" waitingTime="0.00" speed="4.37" departed="1" arrived="1" entered="1" left="1" laneChangedFrom="0" laneChangedTo="0"/>
        <edge id="-114949101#0" sampledSeconds="34.00" traveltime="34.00" overlapTraveltime="34.14" density="0.45" occupancy="0.00" waitingTime="0.00" speed="1.52" departed="1" arrived="0" entered="0" left="1" laneChangedFrom="0" laneChangedTo="0"/>
        <edge id="-114952399#0" sampledSeconds="0.00" departed="0" arrived="0" entered="0" left="0" laneChangedFrom="0" laneChangedTo="0"/>
        <edge id="-114952399#1" sampledSeconds="21.00" traveltime="3.00" overlapTraveltime="3.15" density="3.37" occupancy="0.00" waitingTime="0.00" speed="1.43" departed="0" arrived="0" entered="7" left="7" laneChangedFrom="0" laneChangedTo="0"/>
        <edge id="-115227681" sampledSeconds="13.00" traveltime="4.33" overlapTraveltime="4.36" density="0.30" occupancy="0.00" waitingTime="0.00" speed="6.89" departed="2" arrived="1" entered="1" left="2" laneChangedFrom="0" laneChangedTo="0"/>
        <edge id="-115227682#0" sampledSeconds="0.00" departed="0" arrived="0" entered="0" left="0" laneChangedFrom="0" laneChangedTo="0"/>
        <edge id="-115227682#1" sampledSeconds="57.00" traveltime="57.00" overlapTraveltime="57.16" density="0.50" occupancy="0.00" waitingTime="0.00" speed="1.37" departed="0" arrived="0" entered="1" left="1" laneChangedFrom="0" laneChangedTo="0"/>
        <edge id="-115466410#0" sampledSeconds="1.00" traveltime="1.00" overlapTraveltime="1.01" density="0.05" occupancy="0.00" waitingTime="0.00" speed="14.98" departed="1" arrived="0" entered="0" left="1" laneChangedFrom="0" laneChangedTo="0"/>
        <edge id="-115466410#1" sampledSeconds="18.00" traveltime="4.50" overlapTraveltime="4.55" density="0.64" occupancy="0.00" waitingTime="0.00" speed="4.31" departed="3" arrived="0" entered="1" left="4" laneChangedFrom="0" laneChangedTo="0"/>
        <edge id="-116342915" sampledSeconds="1.00" traveltime="1.00" overlapTraveltime="1.16" density="0.50" occupancy="0.00" waitingTime="0.00" speed="1.38" departed="1" arrived="1" entered="1" left="1" laneChangedFrom="0" laneChangedTo="0"/>
        <edge id="-116391654#1" sampledSeconds="9.00" traveltime="9.00" overlapTraveltime="9.18" density="0.57" occupancy="0.00" waitingTime="0.00" speed="1.21" departed="1" arrived="0" entered="0" left="1" laneChangedFrom="0" laneChangedTo="0"/>
        <edge id="-122666828#0" sampledSeconds="1.00" traveltime="1.00" overlapTraveltime="1.01" density="0.02" occupancy="0.00" waitingTime="0.00" speed="32.51" departed="1" arrived="0" entered="0" left="1" laneChangedFrom="0" laneChangedTo="0"/>
        <edge id="-122666828#1" sampledSeconds="29.00" traveltime="14.50" overlapTraveltime="14.66" density="1.05" occupancy="0.00" waitingTime="0.00" speed="1.31" departed="0" arrived="0" entered="2" left="2" laneChangedFrom="0" laneChangedTo="0"/>
        <edge id="-122666828#2" sampledSeconds="21.00" traveltime="10.50" overlapTraveltime="10.59" density="0.60" occupancy="0.00" waitingTime="0.00" speed="2.30" departed="2" arrived="0" entered="0" left="2" laneChangedFrom="0" laneChangedTo="0"/>
        <edge id="-122868966" sampledSeconds="21.00" traveltime="21.00" overlapTraveltime="21.14" density="0.45" occupancy="0.00" waitingTime="0.00" speed="1.53" departed="1" arrived="0" entered="0" left="1" laneChangedFrom="0" laneChangedTo="0"/>
        <edge id="-125399001#0" sampledSeconds="355.00" traveltime="59.17" overlapTraveltime="59.33" density="3.15" occupancy="0.00" waitingTime="0.00" speed="1.31" departed="0" arrived="0" entered="6" left="6" laneChangedFrom="0" laneChangedTo="0"/>
        <edge id="-125399001#1" sampledSeconds="84.00" traveltime="16.80" overlapTraveltime="16.96" density="2.61" occupancy="0.00" waitingTime="0.00" speed="1.32" departed="0" arrived="0" entered="5" left="5" laneChangedFrom="0" laneChangedTo="0"/>
        <edge id="-125399001#2" sampledSeconds="120.00" traveltime="120.00" overlapTraveltime="120.14" density="0.45" occupancy="0.00" waitingTime="0.00" speed="1.54" departed="0" arrived="0" entered="1" left="1" laneChangedFrom="0" laneChangedTo="0"/>
        <edge id="-125399001#3" sampledSeconds="139.00" traveltime="139.00" overlapTraveltime="139.15" density="0.49" occupancy="0.00" waitingTime="0.00" speed="1.41" departed="0" arrived="0" entered="1" left="1" laneChangedFrom="0" laneChangedTo="0"/>
        <edge id="-125399002#0" sampledSeconds="0.00" departed="0" arrived="0" entered="0" left="0" laneChangedFrom="0" laneChangedTo="0"/>
        <edge id="-125399002#1" sampledSeconds="17.00" traveltime="4.25" overlapTraveltime="4.42" density="2.15" occupancy="0.00" waitingTime="0.00" speed="1.28" departed="1" arrived="0" entered="3" left="4" laneChangedFrom="0" laneChangedTo="0"/>
        <edge id="-128643749" sampledSeconds="0.00" departed="0" arrived="0" entered="0" left="0" laneChangedFrom="0" laneChangedTo="0"/>
        <edge id="-133858189" sampledSeconds="81.00" traveltime="13.50" overlapTraveltime="13.66" density="3.00" occupancy="0.00" waitingTime="0.00" speed="1.38" departed="1" arrived="0" entered="5" left="6" laneChangedFrom="0" laneChangedTo="0"/>
        <edge id="-133858466" sampledSeconds="17.00" traveltime="4.25" overlapTraveltime="4.40" density="1.96" occupancy="0.00" waitingTime="0.00" speed="1.41" departed="0" arrived="0" entered="4" left="4" laneChangedFrom="0" laneChangedTo="0"/>
        <edge id="-133858467#0" sampledSeconds="81.00" traveltime="20.25" overlapTraveltime="20.40" density="1.95" occupancy="0.00" waitingTime="0.00" speed="1.42" departed="2" arrived="0" entered="2" left="4" laneChangedFrom="0" laneChangedTo="0"/>
        <edge id="-133858467#1" sampledSeconds="3.00" traveltime="3.00" overlapTraveltime="3.16" density="0.51" occupancy="0.00" waitingTime="0.00" speed="1.36" departed="0" arrived="0" entered="1" left="1" laneChangedFrom="0" laneChangedTo="0"/>
        <edge id="-133858467#2" sampledSeconds="1.00" traveltime="1.00" overlapTraveltime="1.03" density="0.09" occupancy="0.00" waitingTime="0.00" speed="7.58" departed="1" arrived="0" entered="0" left="1" laneChangedFrom="0" laneChangedTo="0"/>
        <edge id="-137482783#0" sampledSeconds="65.00" traveltime="32.50" overlapTraveltime="32.66" density="1.03" occupancy="0.00" waitingTime="0.00" speed="1.34" departed="0" arrived="0" entered="2" left="2" laneChangedFrom="0" laneChangedTo="0"/>
        <edge id="-137482783#1" sampledSeconds="9.00" traveltime="9.00" overlapTraveltime="9.18" density="0.59" occupancy="0.00" waitingTime="0.00" speed="1.17" departed="1" arrived="0" entered="0" left="1" laneChangedFrom="0" laneChangedTo="0"/>
        <edge id="-137483014#0" sampledSeconds="746.00" traveltime="74.60" overlapTraveltime="74.76" density="5.05" occupancy="0.00" waitingTime="0.00" speed="1.37" departed="0" arrived="0" entered="11" left="10" laneChangedFrom="0" laneChangedTo="0"/>
        <edge id="-137483015#0" sampledSeconds="444.00" traveltime="55.50" overlapTraveltime="55.65" density="3.91" occupancy="0.00" waitingTime="0.00" speed="1.41" departed="0" arrived="0" entered="8" left="8" laneChangedFrom="0" laneChangedTo="0"/>
        <edge id="-137483015#2" sampledSeconds="59.00" traveltime="4.21" overlapTraveltime="4.37" density="7.05" occupancy="0.00" waitingTime="0.00" speed="1.37" departed="0" arrived="0" entered="14" left="14" laneChangedFrom="0" laneChangedTo="0"/>
        <edge id="-137483015#3" sampledSeconds="95.00" traveltime="7.92" overlapTraveltime="8.07" density="6.03" occupancy="0.00" waitingTime="0.00" speed="1.37" departed="0" arrived="1" entered="12" left="11" laneChangedFrom="0" laneChangedTo="0"/>
        <edge id="-137534616#0" sampledSeconds="1.00" traveltime="1.00" overlapTraveltime="1.00" density="0.01" occupancy="0.00" waitingTime="0.00" speed="48.37" departed="1" arrived="0" entered="0" left="1" laneChangedFrom="0" laneChangedTo="0"/>
        <edge id="-137534616#1" sampledSeconds="147.00" traveltime="49.00" overlapTraveltime="49.11" density="1.09" occupancy="0.00" waitingTime="0.00" speed="1.90" departed="2" arrived="0" entered="1" left="3" laneChangedFrom="0" laneChangedTo="0"/>
        <edge id="-137534616#2" sampledSeconds="120.00" traveltime="60.00" overlapTraveltime="60.18" density="1.13" occupancy="0.00" waitingTime="0.00" speed="1.21" departed="0" arrived="0" entered="2" left="2" laneChangedFrom="0" laneChangedTo="0"/>
        <edge id="-137534616#3" sampledSeconds="0.00" departed="0" arrived="0" entered="0" left="0" laneChangedFrom="0" laneChangedTo="0"/>
        <edge id="-137534616#4" sampledSeconds="14.00" traveltime="7.00" overlapTraveltime="7.08" density="0.52" occupancy="0.00" waitingTime="0.00" speed="2.67" departed="1" arrived="0" entered="1" left="2" laneChangedFrom="0" laneChangedTo="0"/>
        <edge id="-138628388" sampledSeconds="0.00" departed="0" arrived="0" entered="0" left="0" laneChangedFrom="0" laneChangedTo="0"/>
        <edge id="-140964924#0" sampledSeconds="1.00" traveltime="1.00" overlapTraveltime="1.14" density="0.45" occupancy="0.00" waitingTime="0.00" speed="1.54" departed="0" arrived="1" entered="1" left="0" laneChangedFrom="0" laneChangedTo="0"/>
        <edge id="-140964924#1" sampledSeconds="0.00" departed="1" arrived="0" entered="0" left="0" laneChangedFrom="0" laneChangedTo="0"/>
        <edge id="-142575655#0" sampledSeconds="254.00" traveltime="31.75" overlapTraveltime="31.90" density="3.91" occupancy="0.00" waitingTime="0.00" speed="1.41" departed="0" arrived="0" entered="8" left="8" laneChangedFrom="0" laneChangedTo="0"/>
        <edge id="-142575655#1" sampledSeconds="247.00" traveltime="30.88" overlapTraveltime="31.03" density="3.92" occupancy="0.00" waitingTime="0.00" speed="1.41" departed="0" arrived="0" entered="8" left="8" laneChangedFrom="0" laneChangedTo="0"/>
        <edge id="-142575655#4" sampledSeconds="1079.00" traveltime="44.96" overlapTraveltime="45.11" density="12.00" occupancy="0.00" waitingTime="0.00" speed="1.38" departed="1" arrived="0" entered="23" left="24" laneChangedFrom="0" laneChangedTo="0"/>
        <edge id="-142575655#5" sampledSeconds="267.00" traveltime="12.14" overlapTraveltime="12.29" density="10.82" occupancy="0.00" waitingTime="0.00" speed="1.40" departed="0" arrived="0" entered="23" left="22" laneChangedFrom="0" laneChangedTo="0"/>
        <edge id="-142575655#6" sampledSeconds="286.00" traveltime="13.00" overlapTraveltime="13.15" density="10.27" occupancy="0.00" waitingTime="0.00" speed="1.48" departed="1" arrived="0" entered="22" left="22" laneChangedFrom="0" laneChangedTo="0"/>
        <edge id="-142575655#7" sampledSeconds="969.00" traveltime="57.00" overlapTraveltime="57.16" density="8.45" occupancy="0.00" waitingTime="0.00" speed="1.39" departed="0" arrived="0" entered="19" left="17" laneChangedFrom="0" laneChangedTo="0"/>
        <edge id="-142575655#8" sampledSeconds="309.00" traveltime="14.71" overlapTraveltime="14.86" density="10.10" occupancy="0.00" waitingTime="0.00" speed="1.43" departed="0" arrived="1" entered="21" left="20" laneChangedFrom="0" laneChangedTo="0"/>
        <edge id="-142575655#9" sampledSeconds="616.00" traveltime="28.00" overlapTraveltime="28.14" density="10.00" occupancy="0.00" waitingTime="0.00" speed="1.52" departed="2" arrived="0" entered="21" left="22" laneChangedFrom="0" laneChangedTo="0"/>
        <edge id="-142575656#0" sampledSeconds="841.00" traveltime="38.23" overlapTraveltime="38.37" density="10.31" occupancy="0.00" waitingTime="0.00" speed="1.47" departed="1" arrived="1" entered="23" left="21" laneChangedFrom="0" laneChangedTo="0"/>
        <edge id="-142575656#1" sampledSeconds="102.00" traveltime="3.64" overlapTraveltime="3.80" density="14.32" occupancy="0.00" waitingTime="0.00" speed="1.35" departed="0" arrived="0" entered="28" left="28" laneChangedFrom="0" laneChangedTo="0"/>
        <edge id="-142575656#10" sampledSeconds="388.00" traveltime="11.41" overlapTraveltime="11.57" density="16.77" occupancy="0.00" waitingTime="0.00" speed="1.40" departed="0" arrived="2" entered="34" left="32" laneChangedFrom="0" laneChangedTo="0"/>
        <edge id="-142575656#11" sampledSeconds="530.00" traveltime="15.14" overlapTraveltime="15.29" density="16.70" occupancy="0.00" waitingTime="0.00" speed="1.44" departed="2" arrived="1" entered="34" left="34" laneChangedFrom="0" laneChangedTo="0"/>
        <edge id="-142575656#12" sampledSeconds="297.00" traveltime="8.74" overlapTraveltime="8.89" density="16.56" occupancy="0.00" waitingTime="0.00" speed="1.41" departed="1" arrived="2" entered="33" left="32" laneChangedFrom="0" laneChangedTo="0"/>
        <edge id="-142575656#14" sampledSeconds="591.00" traveltime="25.70" overlapTraveltime="25.85" density="11.52" occupancy="0.00" waitingTime="0.00" speed="1.38" departed="1" arrived="0" entered="22" left="23" laneChangedFrom="0" laneChangedTo="0"/>
        <edge id="-142575656#15" sampledSeconds="511.00" traveltime="19.65" overlapTraveltime="19.81" density="12.91" occupancy="0.00" waitingTime="0.00" speed="1.39" departed="0" arrived="0" entered="26" left="26" laneChangedFrom="0" laneChangedTo="0"/>
        <edge id="-142575656#3" sampledSeconds="296.00" traveltime="32.89" overlapTraveltime="33.04" density="4.45" occupancy="0.00" waitingTime="0.00" speed="1.39" departed="0" arrived="0" entered="9" left="9" laneChangedFrom="0" laneChangedTo="0"/>
        <edge id="-142575656#4" sampledSeconds="174.00" traveltime="5.61" overlapTraveltime="5.77" density="15.30" occupancy="0.00" waitingTime="0.00" speed="1.40" departed="0" arrived="1" entered="32" left="30" laneChangedFrom="0" laneChangedTo="0"/>
        <edge id="-142575656#5" sampledSeconds="226.00" traveltime="9.83" overlapTraveltime="9.97" density="10.98" occupancy="0.00" waitingTime="0.00" speed="1.44" departed="1" arrived="1" entered="23" left="22" laneChangedFrom="0" laneChangedTo="0"/>
        <edge id="-142575656#6" sampledSeconds="650.00" traveltime="36.11" overlapTraveltime="36.27" density="8.97" occupancy="0.00" waitingTime="0.00" speed="1.38" departed="0" arrived="1" entered="18" left="17" laneChangedFrom="0" laneChangedTo="0"/>
        <edge id="-142575656#7" sampledSeconds="1101.00" traveltime="39.32" overlapTraveltime="39.48" density="14.23" occupancy="0.00" waitingTime="0.00" speed="1.36" departed="0" arrived="0" entered="30" left="28" laneChangedFrom="0" laneChangedTo="0"/>
        <edge id="-142575656#8" sampledSeconds="450.00" traveltime="14.06" overlapTraveltime="14.22" density="16.13" occupancy="0.00" waitingTime="0.00" speed="1.37" departed="1" arrived="1" entered="32" left="31" laneChangedFrom="0" laneChangedTo="0"/>
        <edge id="-142575656#9" sampledSeconds="102.00" traveltime="3.29" overlapTraveltime="3.45" density="16.09" occupancy="0.00" waitingTime="0.00" speed="1.33" departed="0" arrived="0" entered="31" left="31" laneChangedFrom="0" laneChangedTo="0"/>
        <edge id="-142575657#0" sampledSeconds="0.00" departed="0" arrived="0" entered="0" left="0" laneChangedFrom="0" laneChangedTo="0"/>
        <edge id="-142575657#1" sampledSeconds="0.00" departed="0" arrived="0" entered="0" left="0" laneChangedFrom="0" laneChangedTo="0"/>
        <edge id="-142575657#2" sampledSeconds="0.00" departed="0" arrived="0" entered="0" left="0" laneChangedFrom="0" laneChangedTo="0"/>
        <edge id="-142575657#3" sampledSeconds="0.00" departed="0" arrived="0" entered="0" left="0" laneChangedFrom="0" laneChangedTo="0"/>
        <edge id="-142575657#4" sampledSeconds="0.00" departed="0" arrived="0" entered="0" left="0" laneChangedFrom="0" laneChangedTo="0"/>
        <edge id="-142575658#0" sampledSeconds="0.00" departed="0" arrived="0" entered="0" left="0" laneChangedFrom="0" laneChangedTo="0"/>
        <edge id="-142575658#1" sampledSeconds="103.00" traveltime="51.50" overlapTraveltime="51.59" density="0.58" occupancy="0.00" waitingTime="0.00" speed="2.36" departed="1" arrived="0" entered="1" left="2" laneChangedFrom="0" laneChangedTo="0"/>
        <edge id="-142575658#2" sampledSeconds="61.00" traveltime="30.50" overlapTraveltime="30.67" density="1.08" occupancy="0.00" waitingTime="0.00" speed="1.28" departed="0" arrived="0" entered="2" left="2" laneChangedFrom="0" laneChangedTo="0"/>
        <edge id="-142575659#0" sampledSeconds="0.00" departed="0" arrived="0" entered="0" left="0" laneChangedFrom="0" laneChangedTo="0"/>
        <edge id="-142575659#1" sampledSeconds="0.00" departed="0" arrived="0" entered="0" left="0" laneChangedFrom="0" laneChangedTo="0"/>
        <edge id="-142575659#2" sampledSeconds="0.00" departed="0" arrived="0" entered="0" left="0" laneChangedFrom="0" laneChangedTo="0"/>
        <edge id="-142575661#0" sampledSeconds="70.00" traveltime="10.00" overlapTraveltime="10.14" density="3.17" occupancy="0.00" waitingTime="0.00" speed="1.52" departed="0" arrived="1" entered="7" left="6" laneChangedFrom="0" laneChangedTo="0"/>
        <edge id="-142575661#1" sampledSeconds="120.00" traveltime="13.33" overlapTraveltime="13.48" density="4.29" occupancy="0.00" waitingTime="0.00" speed="1.45" departed="0" arrived="1" entered="9" left="8" laneChangedFrom="0" laneChangedTo="0"/>
        <edge id="-142575661#2" sampledSeconds="198.00" traveltime="99.00" overlapTraveltime="99.14" density="0.90" occupancy="0.00" waitingTime="0.00" speed="1.54" departed="0" arrived="0" entered="2" left="2" laneChangedFrom="0" laneChangedTo="0"/>
        <edge id="-142575661#3" sampledSeconds="14.00" traveltime="14.00" overlapTraveltime="14.14" density="0.46" occupancy="0.00" waitingTime="0.00" speed="1.50" departed="0" arrived="0" entered="1" left="1" laneChangedFrom="0" laneChangedTo="0"/>
        <edge id="-142575661#4" sampledSeconds="33.00" traveltime="33.00" overlapTraveltime="33.15" density="0.47" occupancy="0.00" waitingTime="0.00" speed="1.46" departed="0" arrived="0" entered="1" left="1" laneChangedFrom="0" laneChangedTo="0"/>
        <edge id="-142575662#0" sampledSeconds="16.00" traveltime="16.00" overlapTraveltime="16.19" density="0.61" occupancy="0.00" waitingTime="0.00" speed="1.13" departed="0" arrived="0" entered="1" left="1" laneChangedFrom="0" laneChangedTo="0"/>
        <edge id="-142575662#1" sampledSeconds="36.00" traveltime="36.00" overlapTraveltime="36.07" density="0.21" occupancy="0.00" waitingTime="0.00" speed="3.30" departed="0" arrived="1" entered="1" left="0" laneChangedFrom="0" laneChangedTo="0"/>
        <edge id="-142575662#2" sampledSeconds="0.00" departed="0" arrived="0" entered="0" left="0" laneChangedFrom="0" laneChangedTo="0"/>
        <edge id="-142575672#2" sampledSeconds="19.00" traveltime="19.00" overlapTraveltime="19.16" density="0.52" occupancy="0.00" waitingTime="0.00" speed="1.33" departed="0" arrived="0" entered="1" left="1" laneChangedFrom="0" laneChangedTo="0"/>
        <edge id="-142575673" sampledSeconds="1.00" traveltime="1.00" overlapTraveltime="1.00" density="0.01" occupancy="0.00" waitingTime="0.00" speed="106.96" departed="1" arrived="0" entered="0" left="1" laneChangedFrom="0" laneChangedTo="0"/>
        <edge id="-142575674#0" sampledSeconds="2.00" traveltime="1.00" overlapTraveltime="1.47" density="3.00" occupancy="0.00" waitingTime="0.00" speed="0.46" departed="0" arrived="0" entered="2" left="2" laneChangedFrom="0" laneChangedTo="0"/>
        <edge id="-142575674#1" sampledSeconds="117.00" traveltime="39.00" overlapTraveltime="39.11" density="1.06" occupancy="0.00" waitingTime="0.00" speed="1.95" departed="1" arrived="0" entered="2" left="3" laneChangedFrom="0" laneChangedTo="0"/>
        <edge id="-142575674#4" sampledSeconds="151.00" traveltime="30.20" overlapTraveltime="30.36" density="2.59" occupancy="0.00" waitingTime="0.00" speed="1.33" departed="0" arrived="0" entered="5" left="5" laneChangedFrom="0" laneChangedTo="0"/>
        <edge id="-142575677#0" sampledSeconds="0.00" departed="0" arrived="0" entered="0" left="0" laneChangedFrom="0" laneChangedTo="0"/>
        <edge id="-142575677#1" sampledSeconds="0.00" departed="0" arrived="0" entered="0" left="0" laneChangedFrom="0" laneChangedTo="0"/>
        <edge id="-142575677#2" sampledSeconds="124.00" traveltime="124.00" overlapTraveltime="124.15" density="0.49" occupancy="0.00" waitingTime="0.00" speed="1.40" departed="0" arrived="0" entered="1" left="1" laneChangedFrom="0" laneChangedTo="0"/>
        <edge id="-142575677#3" sampledSeconds="25.00" traveltime="25.00" overlapTraveltime="25.14" density="0.45" occupancy="0.00" waitingTime="0.00" speed="1.54" departed="0" arrived="0" entered="1" left="1" laneChangedFrom="0" laneChangedTo="0"/>
        <edge id="-142575684#0" sampledSeconds="46.00" traveltime="9.20" overlapTraveltime="9.30" density="1.61" occupancy="0.00" waitingTime="0.00" speed="2.15" departed="2" arrived="0" entered="3" left="5" laneChangedFrom="0" laneChangedTo="0"/>
        <edge id="-142575684#1" sampledSeconds="35.00" traveltime="8.75" overlapTraveltime="8.92" density="2.14" occupancy="0.00" waitingTime="0.00" speed="1.29" departed="1" arrived="0" entered="3" left="4" laneChangedFrom="0" laneChangedTo="0"/>
        <edge id="-142575684#4" sampledSeconds="66.00" traveltime="66.00" overlapTraveltime="66.19" density="0.61" occupancy="0.00" waitingTime="0.00" speed="1.13" departed="0" arrived="0" entered="1" left="1" laneChangedFrom="0" laneChangedTo="0"/>
        <edge id="-142575684#5" sampledSeconds="0.00" departed="0" arrived="0" entered="0" left="0" laneChangedFrom="0" laneChangedTo="0"/>
        <edge id="-142575687#0" sampledSeconds="207.00" traveltime="69.00" overlapTraveltime="69.17" density="1.62" occupancy="0.00" waitingTime="0.00" speed="1.28" departed="0" arrived="0" entered="3" left="3" laneChangedFrom="0" laneChangedTo="0"/>
        <edge id="-142575687#1" sampledSeconds="101.00" traveltime="25.25" overlapTraveltime="25.41" density="2.08" occupancy="0.00" waitingTime="0.00" speed="1.32" departed="1" arrived="0" entered="3" left="4" laneChangedFrom="0" laneChangedTo="0"/>
        <edge id="-142575688#0" sampledSeconds="843.00" traveltime="30.11" overlapTraveltime="30.26" density="13.29" occupancy="0.00" waitingTime="0.00" speed="1.45" departed="1" arrived="1" entered="28" left="27" laneChangedFrom="0" laneChangedTo="0"/>
        <edge id="-142575688#1" sampledSeconds="567.00" traveltime="27.00" overlapTraveltime="27.15" density="9.91" occupancy="0.00" waitingTime="0.00" speed="1.46" departed="2" arrived="0" entered="19" left="21" laneChangedFrom="0" laneChangedTo="0"/>
        <edge id="-142575688#10" sampledSeconds="53.00" traveltime="4.82" overlapTraveltime="4.98" density="5.54" occupancy="0.00" waitingTime="0.00" speed="1.37" departed="0" arrived="0" entered="11" left="11" laneChangedFrom="0" laneChangedTo="0"/>
        <edge id="-142575688#12" sampledSeconds="9.00" traveltime="1.00" overlapTraveltime="1.47" density="13.48" occupancy="0.00" waitingTime="0.00" speed="0.46" departed="0" arrived="1" entered="10" left="9" laneChangedFrom="0" laneChangedTo="0"/>
        <edge id="-142575688#13" sampledSeconds="29.00" traveltime="3.22" overlapTraveltime="3.37" density="4.26" occupancy="0.00" waitingTime="0.00" speed="1.46" departed="1" arrived="1" entered="8" left="8" laneChangedFrom="0" laneChangedTo="0"/>
        <edge id="-142575688#14" sampledSeconds="26.00" traveltime="2.60" overlapTraveltime="2.76" density="5.08" occupancy="0.00" waitingTime="0.00" speed="1.36" departed="0" arrived="1" entered="10" left="9" laneChangedFrom="0" laneChangedTo="0"/>
        <edge id="-142575688#2" sampledSeconds="24.00" traveltime="1.41" overlapTraveltime="1.58" density="9.19" occupancy="0.00" waitingTime="0.00" speed="1.28" departed="0" arrived="0" entered="17" left="17" laneChangedFrom="0" laneChangedTo="0"/>
        <edge id="-142575688#3" sampledSeconds="193.00" traveltime="11.35" overlapTraveltime="11.50" density="8.20" occupancy="0.00" waitingTime="0.00" speed="1.43" departed="0" arrived="0" entered="17" left="17" laneChangedFrom="0" laneChangedTo="0"/>
        <edge id="-142575688#5" sampledSeconds="11.00" traveltime="1.00" overlapTraveltime="1.80" density="28.08" occupancy="0.00" waitingTime="0.00" speed="0.27" departed="1" arrived="2" entered="12" left="11" laneChangedFrom="0" laneChangedTo="0"/>
        <edge id="-142575688#6" sampledSeconds="197.00" traveltime="21.89" overlapTraveltime="22.05" density="4.62" occupancy="0.00" waitingTime="0.00" speed="1.34" departed="0" arrived="0" entered="9" left="9" laneChangedFrom="0" laneChangedTo="0"/>