<?xml version="1.0" encoding="UTF-8"?>

<!-- generated on 2023-04-26 16:19:46 by Eclipse SUMO sumo Version 1.17.0
<configuration xmlns:xsi="http://www.w3.org/2001/XMLSchema-instance" xsi:noNamespaceSchemaLocation="http://sumo.dlr.de/xsd/sumoConfiguration.xsd">

    <input>
        <net-file value="C:\erdm_ja\sip-svn-trunk\papers\DLR\SUMO_Conference2023\tutorial\05_runMany.final\osm.net.xml.gz"/>
        <route-files value="C:\erdm_ja\sip-svn-trunk\papers\DLR\SUMO_Conference2023\tutorial\05_runMany.final\bikes.rou.xml"/>
    </input>

    <output>
        <output-prefix value="test.sumocfg_0\0."/>
        <tripinfo-output value="C:\erdm_ja\sip-svn-trunk\papers\DLR\SUMO_Conference2023\tutorial\05_runMany.final\tripinfos.xml"/>
        <personinfo-output value="C:\erdm_ja\sip-svn-trunk\papers\DLR\SUMO_Conference2023\tutorial\05_runMany.final\personinfos.xml"/>
        <edgedata-output value="C:\erdm_ja\sip-svn-trunk\papers\DLR\SUMO_Conference2023\tutorial\05_runMany.final\edgedata.xml"/>
        <statistic-output value="C:\erdm_ja\sip-svn-trunk\papers\DLR\SUMO_Conference2023\tutorial\05_runMany.final\stats.xml"/>
    </output>

    <processing>
        <lateral-resolution value="0.8"/>
        <tls.actuated.jam-threshold value="30"/>
    </processing>

    <report>
        <no-step-log value="true"/>
    </report>

    <random_number>
        <seed value="0"/>
    </random_number>

</configuration>
-->

<meandata xmlns:xsi="http://www.w3.org/2001/XMLSchema-instance" xsi:noNamespaceSchemaLocation="http://sumo.dlr.de/xsd/meandata_file.xsd">
    <interval begin="0.00" end="30362.00" id="DEFAULT_EDGEDATA">
        <edge id="-128643746#1" sampledSeconds="6846.98" traveltime="13.04" overlapTraveltime="13.64" density="7.15" laneDensity="7.15" occupancy="1.09" waitingTime="0.00" timeLoss="1067.88" speed="2.43" speedRelative="0.87" departed="0" arrived="0" entered="502" left="502" laneChangedFrom="0" laneChangedTo="0"/>
        <edge id="-142575674#5" sampledSeconds="3605.95" traveltime="6.87" overlapTraveltime="7.18" density="3.41" laneDensity="3.41" occupancy="0.52" waitingTime="0.00" timeLoss="300.93" speed="5.07" speedRelative="0.37" departed="0" arrived="0" entered="502" left="502" laneChangedFrom="0" laneChangedTo="0"/>
        <edge id="-142575688#0" sampledSeconds="4530.24" traveltime="8.70" overlapTraveltime="9.02" density="3.43" laneDensity="3.43" occupancy="0.53" waitingTime="0.00" timeLoss="412.67" speed="5.00" speedRelative="0.36" departed="0" arrived="0" entered="502" left="502" laneChangedFrom="0" laneChangedTo="0"/>
        <edge id="-142575688#1" sampledSeconds="4040.15" traveltime="7.74" overlapTraveltime="8.05" density="3.36" laneDensity="3.36" occupancy="0.52" waitingTime="0.00" timeLoss="276.74" speed="5.12" speedRelative="0.37" departed="0" arrived="0" entered="502" left="502" laneChangedFrom="0" laneChangedTo="0"/>
        <edge id="-142575688#10" sampledSeconds="774.74" traveltime="1.23" overlapTraveltime="1.54" density="4.03" laneDensity="4.03" occupancy="0.51" waitingTime="0.00" timeLoss="50.91" speed="5.14" speedRelative="0.37" departed="0" arrived="0" entered="502" left="502" laneChangedFrom="0" laneChangedTo="0"/>
        <edge id="-142575688#2" sampledSeconds="334.23" traveltime="0.35" overlapTraveltime="0.67" density="6.08" laneDensity="6.08" occupancy="0.52" waitingTime="0.00" timeLoss="22.97" speed="5.12" speedRelative="0.37" departed="0" arrived="0" entered="502" left="502" laneChangedFrom="0" laneChangedTo="0"/>
        <edge id="-142575688#3" sampledSeconds="1559.94" traveltime="2.80" overlapTraveltime="3.11" density="3.57" laneDensity="3.57" occupancy="0.51" waitingTime="0.00" timeLoss="101.31" speed="5.14" speedRelative="0.37" departed="0" arrived="0" entered="502" left="502" laneChangedFrom="0" laneChangedTo="0"/>
        <edge id="-142575688#5" sampledSeconds="205.91" traveltime="0.08" overlapTraveltime="0.41" density="16.54" laneDensity="16.54" occupancy="0.54" waitingTime="0.00" timeLoss="22.45" speed="4.90" speedRelative="0.35" departed="0" arrived="0" entered="502" left="502" laneChangedFrom="0" laneChangedTo="0"/>
        <edge id="-142575688#6" sampledSeconds="10490.30" traveltime="20.54" overlapTraveltime="20.90" density="3.29" laneDensity="3.29" occupancy="0.52" waitingTime="0.00" timeLoss="745.41" speed="5.11" speedRelative="0.37" departed="0" arrived="0" entered="502" left="502" laneChangedFrom="0" laneChangedTo="0"/>
        <edge id="-142575688#7" sampledSeconds="941.70" traveltime="1.56" overlapTraveltime="1.88" density="3.88" laneDensity="3.88" occupancy="0.52" waitingTime="0.00" timeLoss="65.42" speed="5.12" speedRelative="0.37" departed="0" arrived="0" entered="502" left="502" laneChangedFrom="0" laneChangedTo="0"/>
        <edge id="-142575688#8" sampledSeconds="191.01" traveltime="0.07" overlapTraveltime="0.38" density="17.97" laneDensity="17.97" occupancy="0.52" waitingTime="0.00" timeLoss="13.02" speed="5.12" speedRelative="0.37" departed="0" arrived="0" entered="502" left="502" laneChangedFrom="0" laneChangedTo="0"/>
        <edge id="-142575688#9" sampledSeconds="622.64" traveltime="0.93" overlapTraveltime="1.24" density="4.29" laneDensity="4.29" occupancy="0.51" waitingTime="0.00" timeLoss="40.29" speed="5.14" speedRelative="0.37" departed="0" arrived="0" entered="502" left="502" laneChangedFrom="0" laneChangedTo="0"/>
        <edge id="1051578539#3" sampledSeconds="85365.03" traveltime="166.54" overlapTraveltime="170.18" density="14.08" laneDensity="14.08" occupancy="2.23" waitingTime="50825.99" timeLoss="67000.51" speed="1.18" speedRelative="0.21" departed="0" arrived="0" entered="502" left="502" laneChangedFrom="0" laneChangedTo="0"/>
        <edge id="1051578542#1" sampledSeconds="384.43" traveltime="0.32" overlapTraveltime="0.77" density="63.31" laneDensity="63.31" occupancy="0.94" waitingTime="128.00" timeLoss="220.13" speed="2.35" speedRelative="0.42" departed="0" arrived="0" entered="502" left="502" laneChangedFrom="0" laneChangedTo="0"/>
        <edge id="128643746#1" sampledSeconds="8291.72" traveltime="15.87" overlapTraveltime="16.54" density="8.66" laneDensity="8.66" occupancy="1.33" waitingTime="120.00" timeLoss="2275.79" speed="2.00" speedRelative="0.72" departed="502" arrived="502" entered="502" left="502" laneChangedFrom="0" laneChangedTo="0"/>
        <edge id="142575674#4" sampledSeconds="6938.36" traveltime="13.28" overlapTraveltime="13.82" density="6.56" laneDensity="6.56" occupancy="1.02" waitingTime="1959.00" timeLoss="3611.26" speed="2.64" speedRelative="0.19" departed="0" arrived="0" entered="502" left="502" laneChangedFrom="0" laneChangedTo="0"/>
        <edge id="142575688#0" sampledSeconds="4481.50" traveltime="8.61" overlapTraveltime="8.93" density="3.39" laneDensity="3.39" occupancy="0.52" waitingTime="0.00" timeLoss="388.11" speed="5.05" speedRelative="0.36" departed="0" arrived="0" entered="502" left="502" laneChangedFrom="0" laneChangedTo="0"/>
        <edge id="142575688#1" sampledSeconds="5112.90" traveltime="9.69" overlapTraveltime="10.19" density="4.25" laneDensity="4.25" occupancy="0.65" waitingTime="141.00" timeLoss="1372.42" speed="4.05" speedRelative="0.29" departed="0" arrived="0" entered="502" left="502" laneChangedFrom="0" laneChangedTo="0"/>
        <edge id="142575688#10" sampledSeconds="772.73" traveltime="1.23" overlapTraveltime="1.54" density="4.02" laneDensity="4.02" occupancy="0.51" waitingTime="0.00" timeLoss="53.31" speed="5.15" speedRelative="0.37" departed="0" arrived="0" entered="502" left="502" laneChangedFrom="0" laneChangedTo="0"/>
        <edge id="142575688#2" sampledSeconds="420.97" traveltime="0.47" overlapTraveltime="0.84" density="7.66" laneDensity="7.66" occupancy="0.64" waitingTime="0.00" timeLoss="111.61" speed="4.07" speedRelative="0.29" departed="0" arrived="0" entered="502" left="502" laneChangedFrom="0" laneChangedTo="0"/>
        <edge id="142575688#3" sampledSeconds="1640.07" traveltime="2.94" overlapTraveltime="3.27" density="3.77" laneDensity="3.77" occupancy="0.54" waitingTime="0.00" timeLoss="193.96" speed="4.88" speedRelative="0.35" departed="0" arrived="0" entered="502" left="502" laneChangedFrom="0" laneChangedTo="0"/>
        <edge id="142575688#5" sampledSeconds="198.22" traveltime="0.09" overlapTraveltime="0.39" density="14.51" laneDensity="14.51" occupancy="0.51" waitingTime="0.00" timeLoss="12.24" speed="5.19" speedRelative="0.37" departed="0" arrived="0" entered="502" left="502" laneChangedFrom="0" laneChangedTo="0"/>
        <edge id="142575688#6" sampledSeconds="10373.84" traveltime="20.36" overlapTraveltime="20.67" density="3.25" laneDensity="3.25" occupancy="0.51" waitingTime="0.00" timeLoss="683.78" speed="5.17" speedRelative="0.37" departed="0" arrived="0" entered="502" left="502" laneChangedFrom="0" laneChangedTo="0"/>
        <edge id="142575688#7" sampledSeconds="945.46" traveltime="1.57" overlapTraveltime="1.88" density="3.84" laneDensity="3.84" occupancy="0.51" waitingTime="0.00" timeLoss="64.55" speed="5.16" speedRelative="0.37" departed="0" arrived="0" entered="502" left="502" laneChangedFrom="0" laneChangedTo="0"/>
        <edge id="142575688#8" sampledSeconds="190.43" traveltime="0.07" overlapTraveltime="0.38" density="17.92" laneDensity="17.92" occupancy="0.51" waitingTime="0.00" timeLoss="13.53" speed="5.14" speedRelative="0.37" departed="0" arrived="0" entered="502" left="502" laneChangedFrom="0" laneChangedTo="0"/>
        <edge id="142575688#9" sampledSeconds="618.54" traveltime="0.92" overlapTraveltime="1.23" density="4.26" laneDensity="4.26" occupancy="0.51" waitingTime="0.00" timeLoss="39.73" speed="5.18" speedRelative="0.37" departed="0" arrived="0" entered="502" left="502" laneChangedFrom="0" laneChangedTo="0"/>
        <edge id="143308542#5" sampledSeconds="10392.86" traveltime="20.39" overlapTraveltime="20.70" density="3.34" laneDensity="1.67" occupancy="0.26" waitingTime="0.00" timeLoss="886.20" speed="5.03" speedRelative="0.36" departed="0" arrived="0" entered="502" left="502" laneChangedFrom="0" laneChangedTo="0"/>
        <edge id="143308542#7" sampledSeconds="3621.62" traveltime="6.90" overlapTraveltime="7.21" density="3.43" laneDensity="1.71" occupancy="0.26" waitingTime="0.00" timeLoss="300.91" speed="5.04" speedRelative="0.36" departed="0" arrived="0" entered="502" left="502" laneChangedFrom="0" laneChangedTo="0"/>
        <edge id="143308542#8" sampledSeconds="6760.16" traveltime="13.02" overlapTraveltime="13.47" density="4.59" laneDensity="2.29" occupancy="0.36" waitingTime="884.00" timeLoss="2182.54" speed="3.72" speedRelative="0.27" departed="0" arrived="0" entered="502" left="502" laneChangedFrom="0" laneChangedTo="0"/>
        <edge id="143308552#1" sampledSeconds="9568.40" traveltime="18.64" overlapTraveltime="19.06" density="4.03" laneDensity="2.02" occupancy="0.32" waitingTime="775.00" timeLoss="2287.12" speed="4.19" speedRelative="0.30" departed="0" arrived="0" entered="502" left="502" laneChangedFrom="0" laneChangedTo="0"/>
        <edge id="152839448#0" sampledSeconds="3670.60" traveltime="7.63" overlapTraveltime="8.00" density="6.66" laneDensity="2.22" occupancy="0.35" waitingTime="248.00" timeLoss="2033.06" speed="2.47" speedRelative="0.18" departed="502" arrived="0" entered="0" left="502" laneChangedFrom="0" laneChangedTo="0"/>
        <edge id="318210389#0" sampledSeconds="7488.57" traveltime="14.43" overlapTraveltime="14.92" density="6.09" laneDensity="1.52" occupancy="0.24" waitingTime="1868.00" timeLoss="3671.88" speed="2.82" speedRelative="0.20" departed="0" arrived="0" entered="502" left="502" laneChangedFrom="0" laneChangedTo="0"/>
        <edge id="52036180#5" sampledSeconds="6726.75" traveltime="26.85" overlapTraveltime="27.73" density="4.56" laneDensity="1.52" occupancy="0.24" waitingTime="87.00" timeLoss="4511.15" speed="1.81" speedRelative="0.13" departed="0" arrived="502" entered="502" left="0" laneChangedFrom="0" laneChangedTo="0"/>
        <edge id="541676219" sampledSeconds="6519.38" traveltime="12.67" overlapTraveltime="12.99" density="3.31" laneDensity="1.10" occupancy="0.17" waitingTime="0.00" timeLoss="489.97" speed="5.12" speedRelative="0.37" departed="0" arrived="0" entered="502" left="502" laneChangedFrom="0" laneChangedTo="0"/>
        <edge id="670062907#1" sampledSeconds="5795.10" traveltime="11.15" overlapTraveltime="11.55" density="3.92" laneDensity="1.96" occupancy="0.30" waitingTime="60.00" timeLoss="1237.80" speed="4.35" speedRelative="0.31" departed="0" arrived="0" entered="502" left="502" laneChangedFrom="268" laneChangedTo="268"/>
        <edge id="670062907#2" sampledSeconds="5435.93" traveltime="10.50" overlapTraveltime="10.83" density="3.91" laneDensity="1.96" occupancy="0.30" waitingTime="68.00" timeLoss="1140.43" speed="4.37" speedRelative="0.31" departed="0" arrived="0" entered="502" left="502" laneChangedFrom="175" laneChangedTo="175"/>
        <edge id="670062907#4" sampledSeconds="10701.38" traveltime="20.89" overlapTraveltime="21.32" density="4.04" laneDensity="2.02" occupancy="0.32" waitingTime="1175.00" timeLoss="2639.79" speed="4.17" speedRelative="0.30" departed="0" arrived="0" entered="502" left="502" laneChangedFrom="6" laneChangedTo="6"/>
        <edge id="670062909#1" sampledSeconds="11716.43" traveltime="22.91" overlapTraveltime="23.34" density="4.94" laneDensity="1.65" occupancy="0.26" waitingTime="2294.00" timeLoss="4486.76" speed="3.41" speedRelative="0.25" departed="0" arrived="0" entered="502" left="502" laneChangedFrom="0" laneChangedTo="0"/>
        <edge id="670062912#1" sampledSeconds="18334.45" traveltime="36.17" overlapTraveltime="36.52" density="3.52" laneDensity="1.17" occupancy="0.19" waitingTime="399.00" timeLoss="2637.66" speed="4.74" speedRelative="0.34" departed="0" arrived="0" entered="502" left="502" laneChangedFrom="0" laneChangedTo="0"/>
        <edge id="81639675#1" sampledSeconds="6299.85" traveltime="12.09" overlapTraveltime="12.55" density="9.21" laneDensity="3.07" occupancy="0.48" waitingTime="2492.00" timeLoss="4109.81" speed="1.92" speedRelative="0.14" departed="0" arrived="0" entered="502" left="502" laneChangedFrom="0" laneChangedTo="0"/>
        <edge id="976351540#1" sampledSeconds="12686.00" traveltime="24.82" overlapTraveltime="25.27" density="6.63" laneDensity="2.21" occupancy="0.35" waitingTime="2470.00" timeLoss="6783.94" speed="2.56" speedRelative="0.18" departed="0" arrived="0" entered="502" left="502" laneChangedFrom="0" laneChangedTo="0"/>
    </interval>
</meandata>
