<?xml version="1.0" encoding="UTF-8"?>

<!-- generated on Wed Oct  7 16:40:49 2020 by Eclipse SUMO sumo Version v1_7_0+0540-03ba62cf54
<configuration xmlns:xsi="http://www.w3.org/2001/XMLSchema-instance" xsi:noNamespaceSchemaLocation="http://sumo.dlr.de/xsd/sumoConfiguration.xsd">

    <input>
        <net-file value="net.net.xml"/>
        <route-files value="taxi3.rou.xml,persons_taxi_ptStops.rou.xml"/>
        <additional-files value="connected_stops.add.xml"/>
    </input>

    <output>
        <tripinfo-output value="tripinfos4.xml"/>
        <tripinfo-output.write-unfinished value="true"/>
        <stop-output value="stopinfos4.xml"/>
        <statistic-output value="statistics4.xml"/>
    </output>

    <routing>
        <persontrip.default.group value="group"/>
        <device.rerouting.adaptation-steps value="18"/>
        <device.rerouting.adaptation-interval value="10"/>
    </routing>

    <report>
        <verbose value="true"/>
        <duration-log.statistics value="true"/>
        <no-step-log value="true"/>
    </report>

    <taxi_device>
        <device.taxi.dispatch-algorithm value="greedyShared"/>
        <device.taxi.dispatch-algorithm.output value="dispatchinfo.greedyShared.xml"/>
    </taxi_device>

    <gui_only>
        <gui-settings-file value="taxi.view.xml"/>
    </gui_only>

</configuration>
-->

<tripinfos xmlns:xsi="http://www.w3.org/2001/XMLSchema-instance" xsi:noNamespaceSchemaLocation="http://sumo.dlr.de/xsd/tripinfo_file.xsd">
    <personinfo id="88" depart="88.00" type="DEFAULT_PEDTYPE">
        <walk depart="88.00" departPos="0.00" arrival="228.00" arrivalPos="0.69" duration="140.00" routeLength="170.58" timeLoss="18.05" maxSpeed="1.40"/>
    </personinfo>
    <personinfo id="245" depart="245.00" type="DEFAULT_PEDTYPE">
        <walk depart="245.00" departPos="0.00" arrival="256.00" arrivalPos="7.78" duration="11.00" routeLength="13.04" timeLoss="1.42" maxSpeed="1.36"/>
    </personinfo>
    <personinfo id="148" depart="148.00" type="DEFAULT_PEDTYPE">
        <walk depart="148.00" departPos="0.00" arrival="262.00" arrivalPos="14.35" duration="114.00" routeLength="125.59" timeLoss="20.48" maxSpeed="1.34"/>
    </personinfo>
    <personinfo id="151" depart="151.00" type="DEFAULT_PEDTYPE">
        <walk depart="151.00" departPos="0.00" arrival="294.00" arrivalPos="4.20" duration="143.00" routeLength="172.12" timeLoss="19.64" maxSpeed="1.40"/>
    </personinfo>
    <personinfo id="19" depart="19.00" type="DEFAULT_PEDTYPE">
        <walk depart="19.00" departPos="0.00" arrival="324.00" arrivalPos="16.86" duration="305.00" routeLength="379.23" timeLoss="36.82" maxSpeed="1.41"/>
    </personinfo>
    <personinfo id="284" depart="284.00" type="DEFAULT_PEDTYPE">
        <walk depart="284.00" departPos="0.00" arrival="364.00" arrivalPos="0.79" duration="80.00" routeLength="96.16" timeLoss="19.24" maxSpeed="1.58"/>
    </personinfo>
    <personinfo id="204" depart="204.00" type="DEFAULT_PEDTYPE">
        <walk depart="204.00" departPos="0.00" arrival="374.00" arrivalPos="24.41" duration="170.00" routeLength="208.34" timeLoss="26.15" maxSpeed="1.45"/>
    </personinfo>
    <personinfo id="87" depart="87.00" type="DEFAULT_PEDTYPE">
        <walk depart="87.00" departPos="0.00" arrival="375.00" arrivalPos="3.54" duration="288.00" routeLength="368.79" timeLoss="33.36" maxSpeed="1.45"/>
    </personinfo>
    <personinfo id="263" depart="263.00" type="DEFAULT_PEDTYPE">
        <walk depart="263.00" departPos="0.00" arrival="378.00" arrivalPos="0.17" duration="115.00" routeLength="151.65" timeLoss="24.15" maxSpeed="1.67"/>
    </personinfo>
    <personinfo id="161" depart="161.00" type="DEFAULT_PEDTYPE">
        <walk depart="161.00" departPos="0.00" arrival="389.00" arrivalPos="19.32" duration="228.00" routeLength="293.54" timeLoss="31.89" maxSpeed="1.50"/>
    </personinfo>
    <personinfo id="242" depart="242.00" type="DEFAULT_PEDTYPE">
        <walk depart="242.00" departPos="0.00" arrival="454.00" arrivalPos="7.59" duration="212.00" routeLength="203.01" timeLoss="42.77" maxSpeed="1.20"/>
    </personinfo>
    <personinfo id="12" depart="12.00" type="DEFAULT_PEDTYPE">
        <walk depart="12.00" departPos="0.00" arrival="456.00" arrivalPos="19.98" duration="444.00" routeLength="590.41" timeLoss="65.44" maxSpeed="1.56"/>
    </personinfo>
    <personinfo id="102" depart="102.00" type="DEFAULT_PEDTYPE">
        <walk depart="102.00" departPos="0.00" arrival="465.00" arrivalPos="112.05" duration="363.00" routeLength="427.46" timeLoss="45.10" maxSpeed="1.34"/>
    </personinfo>
    <personinfo id="224" depart="224.00" type="DEFAULT_PEDTYPE">
        <walk depart="224.00" departPos="0.00" arrival="488.00" arrivalPos="10.99" duration="264.00" routeLength="258.36" timeLoss="38.43" maxSpeed="1.15"/>
    </personinfo>
    <personinfo id="104" depart="104.00" type="DEFAULT_PEDTYPE">
        <walk depart="104.00" departPos="0.00" arrival="488.00" arrivalPos="0.27" duration="384.00" routeLength="412.35" timeLoss="51.89" maxSpeed="1.24"/>
    </personinfo>
    <personinfo id="114" depart="114.00" type="DEFAULT_PEDTYPE">
        <walk depart="114.00" departPos="0.00" arrival="503.00" arrivalPos="34.73" duration="389.00" routeLength="524.45" timeLoss="44.60" maxSpeed="1.52"/>
    </personinfo>
    <personinfo id="192" depart="192.00" type="DEFAULT_PEDTYPE">
        <walk depart="192.00" departPos="0.00" arrival="512.00" arrivalPos="2.24" duration="320.00" routeLength="430.31" timeLoss="37.24" maxSpeed="1.52"/>
    </personinfo>
    <personinfo id="11" depart="11.00" type="DEFAULT_PEDTYPE">
        <walk depart="11.00" departPos="0.00" arrival="520.00" arrivalPos="15.48" duration="509.00" routeLength="649.17" timeLoss="62.61" maxSpeed="1.45"/>
    </personinfo>
    <personinfo id="14" depart="14.00" type="DEFAULT_PEDTYPE">
        <walk depart="14.00" departPos="0.00" arrival="88.00" arrivalPos="46.91" duration="74.00" routeLength="85.34" timeLoss="7.70" maxSpeed="1.29"/>
        <ride waitingTime="300.00" vehicle="taxi.31" depart="388.00" arrival="433.00" arrivalPos="37.11" duration="45.00" routeLength="297.88" timeLoss="24.64"/>
        <walk depart="433.00" departPos="37.11" arrival="521.00" arrivalPos="5.46" duration="88.00" routeLength="86.20" timeLoss="21.04" maxSpeed="1.29"/>
    </personinfo>
    <personinfo id="475" depart="475.00" type="DEFAULT_PEDTYPE">
        <walk depart="475.00" departPos="0.00" arrival="524.00" arrivalPos="25.70" duration="49.00" routeLength="51.89" timeLoss="7.36" maxSpeed="1.25"/>
    </personinfo>
    <personinfo id="456" depart="456.00" type="DEFAULT_PEDTYPE">
        <walk depart="456.00" departPos="0.00" arrival="532.00" arrivalPos="2.44" duration="76.00" routeLength="104.17" timeLoss="9.78" maxSpeed="1.57"/>
    </personinfo>
    <personinfo id="374" depart="374.00" type="DEFAULT_PEDTYPE">
        <walk depart="374.00" departPos="0.00" arrival="533.00" arrivalPos="18.79" duration="159.00" routeLength="202.76" timeLoss="16.56" maxSpeed="1.42"/>
    </personinfo>
    <personinfo id="419" depart="419.00" type="DEFAULT_PEDTYPE">
        <walk depart="419.00" departPos="0.00" arrival="536.00" arrivalPos="0.59" duration="117.00" routeLength="136.77" timeLoss="21.40" maxSpeed="1.43"/>
    </personinfo>
    <personinfo id="240" depart="240.00" type="DEFAULT_PEDTYPE">
        <walk depart="240.00" departPos="0.00" arrival="542.00" arrivalPos="98.69" duration="302.00" routeLength="431.87" timeLoss="35.81" maxSpeed="1.62"/>
    </personinfo>
    <personinfo id="196" depart="196.00" type="DEFAULT_PEDTYPE">
        <walk depart="196.00" departPos="0.00" arrival="546.00" arrivalPos="128.56" duration="350.00" routeLength="435.43" timeLoss="45.63" maxSpeed="1.43"/>
    </personinfo>
    <personinfo id="346" depart="346.00" type="DEFAULT_PEDTYPE">
        <walk depart="346.00" departPos="0.00" arrival="575.00" arrivalPos="0.10" duration="229.00" routeLength="271.79" timeLoss="27.19" maxSpeed="1.35"/>
    </personinfo>
    <personinfo id="287" depart="287.00" type="DEFAULT_PEDTYPE">
        <walk depart="287.00" departPos="0.00" arrival="586.00" arrivalPos="11.88" duration="299.00" routeLength="367.01" timeLoss="33.12" maxSpeed="1.38"/>
    </personinfo>
    <personinfo id="324" depart="324.00" type="DEFAULT_PEDTYPE">
        <walk depart="324.00" departPos="0.00" arrival="596.00" arrivalPos="1.57" duration="272.00" routeLength="322.42" timeLoss="41.72" maxSpeed="1.40"/>
    </personinfo>
    <personinfo id="476" depart="476.00" type="DEFAULT_PEDTYPE">
        <walk depart="476.00" departPos="0.00" arrival="599.00" arrivalPos="42.62" duration="123.00" routeLength="147.84" timeLoss="13.45" maxSpeed="1.35"/>
    </personinfo>
    <personinfo id="330" depart="330.00" type="DEFAULT_PEDTYPE">
        <walk depart="330.00" departPos="0.00" arrival="603.00" arrivalPos="13.67" duration="273.00" routeLength="404.47" timeLoss="35.97" maxSpeed="1.71"/>
    </personinfo>
    <personinfo id="52" depart="52.00" type="DEFAULT_PEDTYPE">
        <walk depart="52.00" departPos="0.00" arrival="92.00" arrivalPos="97.72" duration="40.00" routeLength="52.22" timeLoss="5.69" maxSpeed="1.52"/>
        <ride waitingTime="338.00" vehicle="taxi.29" depart="430.00" arrival="502.00" arrivalPos="25.70" duration="72.00" routeLength="882.68" timeLoss="12.64"/>
        <walk depart="502.00" departPos="25.70" arrival="614.00" arrivalPos="111.89" duration="112.00" routeLength="151.16" timeLoss="12.68" maxSpeed="1.52"/>
    </personinfo>
    <personinfo id="185" depart="185.00" type="DEFAULT_PEDTYPE">
        <walk depart="185.00" departPos="0.00" arrival="619.00" arrivalPos="27.73" duration="434.00" routeLength="480.16" timeLoss="56.57" maxSpeed="1.27"/>
    </personinfo>
    <personinfo id="197" depart="197.00" type="DEFAULT_PEDTYPE">
        <walk depart="197.00" departPos="0.00" arrival="647.00" arrivalPos="0.25" duration="450.00" routeLength="467.41" timeLoss="64.41" maxSpeed="1.21"/>
    </personinfo>
    <personinfo id="202" depart="202.00" type="DEFAULT_PEDTYPE">
        <walk depart="202.00" departPos="0.00" arrival="649.00" arrivalPos="4.48" duration="447.00" routeLength="561.36" timeLoss="56.50" maxSpeed="1.44"/>
    </personinfo>
    <personinfo id="206" depart="206.00" type="DEFAULT_PEDTYPE">
        <walk depart="206.00" departPos="0.00" arrival="654.00" arrivalPos="1.97" duration="448.00" routeLength="532.12" timeLoss="47.40" maxSpeed="1.33"/>
    </personinfo>
    <personinfo id="89" depart="89.00" type="DEFAULT_PEDTYPE">
        <walk depart="89.00" departPos="0.00" arrival="674.00" arrivalPos="0.29" duration="585.00" routeLength="718.98" timeLoss="78.49" maxSpeed="1.42"/>
    </personinfo>
    <personinfo id="358" depart="358.00" type="DEFAULT_PEDTYPE">
        <walk depart="358.00" departPos="0.00" arrival="718.00" arrivalPos="20.73" duration="360.00" routeLength="483.15" timeLoss="46.28" maxSpeed="1.54"/>
    </personinfo>
    <personinfo id="125" depart="125.00" type="DEFAULT_PEDTYPE">
        <walk depart="125.00" departPos="0.00" arrival="718.00" arrivalPos="15.87" duration="593.00" routeLength="799.84" timeLoss="93.45" maxSpeed="1.60"/>
    </personinfo>
    <personinfo id="380" depart="380.00" type="DEFAULT_PEDTYPE">
        <walk depart="380.00" departPos="0.00" arrival="733.00" arrivalPos="2.88" duration="353.00" routeLength="391.16" timeLoss="53.36" maxSpeed="1.31"/>
    </personinfo>
    <personinfo id="194" depart="194.00" type="DEFAULT_PEDTYPE">
        <walk depart="194.00" departPos="0.00" arrival="759.00" arrivalPos="37.06" duration="565.00" routeLength="693.16" timeLoss="65.36" maxSpeed="1.39"/>
    </personinfo>
    <personinfo id="563" depart="563.00" type="DEFAULT_PEDTYPE">
        <walk depart="563.00" departPos="0.00" arrival="770.00" arrivalPos="15.91" duration="207.00" routeLength="270.04" timeLoss="24.10" maxSpeed="1.48"/>
    </personinfo>
    <personinfo id="520" depart="520.00" type="DEFAULT_PEDTYPE">
        <walk depart="520.00" departPos="0.00" arrival="772.00" arrivalPos="23.73" duration="252.00" routeLength="305.55" timeLoss="30.94" maxSpeed="1.38"/>
    </personinfo>
    <personinfo id="68" depart="68.00" type="DEFAULT_PEDTYPE">
        <walk depart="68.00" departPos="0.00" arrival="186.00" arrivalPos="13.84" duration="118.00" routeLength="148.96" timeLoss="13.07" maxSpeed="1.42"/>
        <ride waitingTime="349.00" vehicle="taxi.62" depart="535.00" arrival="704.00" arrivalPos="12.56" duration="169.00" routeLength="1219.96" timeLoss="83.59"/>
        <walk depart="704.00" departPos="12.56" arrival="778.00" arrivalPos="0.10" duration="74.00" routeLength="91.28" timeLoss="9.70" maxSpeed="1.42"/>
    </personinfo>
    <personinfo id="5" depart="5.00" type="DEFAULT_PEDTYPE">
        <walk depart="5.00" departPos="0.00" arrival="51.00" arrivalPos="44.04" duration="46.00" routeLength="49.61" timeLoss="11.85" maxSpeed="1.45"/>
        <ride waitingTime="532.00" vehicle="taxi.19" depart="583.00" arrival="746.00" arrivalPos="85.91" duration="163.00" routeLength="1557.51" timeLoss="48.61"/>
        <walk depart="746.00" departPos="85.91" arrival="782.00" arrivalPos="20.57" duration="36.00" routeLength="38.66" timeLoss="9.38" maxSpeed="1.45"/>
    </personinfo>
    <personinfo id="457" depart="457.00" type="DEFAULT_PEDTYPE">
        <walk depart="457.00" departPos="0.00" arrival="783.00" arrivalPos="9.26" duration="326.00" routeLength="399.37" timeLoss="39.40" maxSpeed="1.39"/>
    </personinfo>
    <personinfo id="70" depart="70.00" type="DEFAULT_PEDTYPE">
        <walk depart="70.00" departPos="0.00" arrival="123.00" arrivalPos="49.85" duration="53.00" routeLength="61.52" timeLoss="7.48" maxSpeed="1.35"/>
        <ride waitingTime="434.00" vehicle="taxi.55" depart="557.00" arrival="698.00" arrivalPos="85.91" duration="141.00" routeLength="1595.95" timeLoss="37.37"/>
        <walk depart="698.00" departPos="85.91" arrival="783.00" arrivalPos="29.04" duration="85.00" routeLength="100.90" timeLoss="10.33" maxSpeed="1.35"/>
    </personinfo>
    <personinfo id="418" depart="418.00" type="DEFAULT_PEDTYPE">
        <walk depart="418.00" departPos="0.00" arrival="784.00" arrivalPos="0.17" duration="366.00" routeLength="401.36" timeLoss="50.99" maxSpeed="1.27"/>
    </personinfo>
    <personinfo id="203" depart="203.00" type="DEFAULT_PEDTYPE">
        <walk depart="203.00" departPos="0.00" arrival="797.00" arrivalPos="4.62" duration="594.00" routeLength="698.79" timeLoss="80.95" maxSpeed="1.36"/>
    </personinfo>
    <personinfo id="2" depart="2.00" type="DEFAULT_PEDTYPE">
        <walk depart="2.00" departPos="0.00" arrival="798.00" arrivalPos="34.12" duration="796.00" routeLength="1055.02" timeLoss="94.39" maxSpeed="1.50"/>
    </personinfo>
    <personinfo id="544" depart="544.00" type="DEFAULT_PEDTYPE">
        <walk depart="544.00" departPos="0.00" arrival="804.00" arrivalPos="10.06" duration="260.00" routeLength="347.68" timeLoss="31.73" maxSpeed="1.52"/>
    </personinfo>
    <personinfo id="392" depart="392.00" type="DEFAULT_PEDTYPE">
        <walk depart="392.00" departPos="0.00" arrival="807.00" arrivalPos="3.18" duration="415.00" routeLength="511.83" timeLoss="62.01" maxSpeed="1.45"/>
    </personinfo>
    <personinfo id="38" depart="38.00" type="DEFAULT_PEDTYPE">
        <walk depart="38.00" departPos="0.00" arrival="821.00" arrivalPos="0.40" duration="783.00" routeLength="859.59" timeLoss="95.77" maxSpeed="1.25"/>
    </personinfo>
    <personinfo id="45" depart="45.00" type="DEFAULT_PEDTYPE">
        <walk depart="45.00" departPos="0.00" arrival="97.00" arrivalPos="13.84" duration="52.00" routeLength="63.47" timeLoss="6.18" maxSpeed="1.39"/>
        <ride waitingTime="224.00" vehicle="taxi.25" depart="321.00" arrival="413.00" arrivalPos="125.06" duration="92.00" routeLength="661.72" timeLoss="45.62"/>
        <walk depart="413.00" departPos="125.06" arrival="821.00" arrivalPos="3.12" duration="408.00" routeLength="492.29" timeLoss="52.63" maxSpeed="1.39"/>
    </personinfo>
    <personinfo id="740" depart="740.00" type="DEFAULT_PEDTYPE">
        <walk depart="740.00" departPos="0.00" arrival="827.00" arrivalPos="8.76" duration="87.00" routeLength="124.07" timeLoss="11.19" maxSpeed="1.64"/>
    </personinfo>
    <personinfo id="107" depart="107.00" type="DEFAULT_PEDTYPE">
        <walk depart="107.00" departPos="0.00" arrival="827.00" arrivalPos="0.10" duration="720.00" routeLength="883.09" timeLoss="105.36" maxSpeed="1.44"/>
    </personinfo>
    <personinfo id="147" depart="147.00" type="DEFAULT_PEDTYPE">
        <walk depart="147.00" departPos="0.00" arrival="266.00" arrivalPos="97.72" duration="119.00" routeLength="145.22" timeLoss="14.67" maxSpeed="1.39"/>
        <ride waitingTime="428.00" vehicle="taxi.83" depart="694.00" arrival="773.00" arrivalPos="71.29" duration="79.00" routeLength="688.53" timeLoss="29.43"/>
        <walk depart="773.00" departPos="71.29" arrival="831.00" arrivalPos="20.80" duration="58.00" routeLength="70.68" timeLoss="7.22" maxSpeed="1.39"/>
    </personinfo>
    <personinfo id="763" depart="763.00" type="DEFAULT_PEDTYPE">
        <walk depart="763.00" departPos="0.00" arrival="835.00" arrivalPos="3.56" duration="72.00" routeLength="79.85" timeLoss="9.20" maxSpeed="1.27"/>
    </personinfo>
    <personinfo id="407" depart="407.00" type="DEFAULT_PEDTYPE">
        <walk depart="407.00" departPos="0.00" arrival="836.00" arrivalPos="27.11" duration="429.00" routeLength="535.71" timeLoss="47.39" maxSpeed="1.40"/>
    </personinfo>
    <personinfo id="512" depart="512.00" type="DEFAULT_PEDTYPE">
        <walk depart="512.00" departPos="0.00" arrival="837.00" arrivalPos="22.78" duration="325.00" routeLength="417.08" timeLoss="40.28" maxSpeed="1.46"/>
    </personinfo>
    <personinfo id="24" depart="24.00" type="DEFAULT_PEDTYPE">
        <walk depart="24.00" departPos="0.00" arrival="842.00" arrivalPos="4.75" duration="818.00" routeLength="862.66" timeLoss="106.23" maxSpeed="1.21"/>
    </personinfo>
    <personinfo id="480" depart="480.00" type="DEFAULT_PEDTYPE">
        <walk depart="480.00" departPos="0.00" arrival="853.00" arrivalPos="7.71" duration="373.00" routeLength="428.12" timeLoss="41.98" maxSpeed="1.29"/>
    </personinfo>
    <personinfo id="236" depart="236.00" type="DEFAULT_PEDTYPE">
        <walk depart="236.00" departPos="0.00" arrival="859.00" arrivalPos="31.66" duration="623.00" routeLength="680.10" timeLoss="72.81" maxSpeed="1.24"/>
    </personinfo>
    <personinfo id="336" depart="336.00" type="DEFAULT_PEDTYPE">
        <walk depart="336.00" departPos="0.00" arrival="860.00" arrivalPos="19.88" duration="524.00" routeLength="682.07" timeLoss="62.46" maxSpeed="1.48"/>
    </personinfo>
    <personinfo id="326" depart="326.00" type="DEFAULT_PEDTYPE">
        <walk depart="326.00" departPos="0.00" arrival="872.00" arrivalPos="1.59" duration="546.00" routeLength="559.96" timeLoss="87.56" maxSpeed="1.22"/>
    </personinfo>
    <personinfo id="359" depart="359.00" type="DEFAULT_PEDTYPE">
        <walk depart="359.00" departPos="0.00" arrival="874.00" arrivalPos="27.73" duration="515.00" routeLength="503.89" timeLoss="58.85" maxSpeed="1.10"/>
    </personinfo>
    <personinfo id="469" depart="469.00" type="DEFAULT_PEDTYPE">
        <walk depart="469.00" departPos="0.00" arrival="875.00" arrivalPos="41.72" duration="406.00" routeLength="420.94" timeLoss="51.81" maxSpeed="1.19"/>
    </personinfo>
    <personinfo id="139" depart="139.00" type="DEFAULT_PEDTYPE">
        <walk depart="139.00" departPos="0.00" arrival="173.00" arrivalPos="19.73" duration="34.00" routeLength="38.31" timeLoss="5.07" maxSpeed="1.32"/>
        <ride waitingTime="484.00" vehicle="taxi.21" depart="657.00" arrival="831.00" arrivalPos="102.02" duration="174.00" routeLength="1726.74" timeLoss="50.23"/>
        <walk depart="831.00" departPos="102.02" arrival="894.00" arrivalPos="20.76" duration="63.00" routeLength="71.39" timeLoss="9.09" maxSpeed="1.32"/>
    </personinfo>
    <personinfo id="4" depart="4.00" type="DEFAULT_PEDTYPE">
        <walk depart="4.00" departPos="0.00" arrival="151.00" arrivalPos="58.35" duration="147.00" routeLength="144.71" timeLoss="21.62" maxSpeed="1.15"/>
        <ride waitingTime="289.00" vehicle="taxi.47" depart="440.00" arrival="598.00" arrivalPos="82.09" duration="158.00" routeLength="1439.15" timeLoss="56.76"/>
        <walk depart="598.00" departPos="82.09" arrival="899.00" arrivalPos="8.63" duration="301.00" routeLength="310.00" timeLoss="32.42" maxSpeed="1.15"/>
    </personinfo>
    <personinfo id="425" depart="425.00" type="DEFAULT_PEDTYPE">
        <walk depart="425.00" departPos="0.00" arrival="904.00" arrivalPos="24.54" duration="479.00" routeLength="568.80" timeLoss="57.33" maxSpeed="1.35"/>
    </personinfo>
    <personinfo id="187" depart="187.00" type="DEFAULT_PEDTYPE">
        <walk depart="187.00" departPos="0.00" arrival="275.00" arrivalPos="34.59" duration="88.00" routeLength="94.12" timeLoss="11.98" maxSpeed="1.24"/>
        <ride waitingTime="279.00" vehicle="taxi.78" depart="554.00" arrival="620.00" arrivalPos="57.66" duration="66.00" routeLength="508.75" timeLoss="28.17"/>
        <walk depart="620.00" departPos="57.66" arrival="904.00" arrivalPos="4.55" duration="284.00" routeLength="301.78" timeLoss="40.26" maxSpeed="1.24"/>
    </personinfo>
    <personinfo id="208" depart="208.00" type="DEFAULT_PEDTYPE">
        <walk depart="208.00" departPos="0.00" arrival="345.00" arrivalPos="14.89" duration="137.00" routeLength="136.21" timeLoss="37.65" maxSpeed="1.37"/>
        <ride waitingTime="376.00" vehicle="taxi.93" depart="721.00" arrival="843.00" arrivalPos="22.64" duration="122.00" routeLength="966.26" timeLoss="49.87"/>
        <walk depart="843.00" departPos="22.64" arrival="916.00" arrivalPos="26.41" duration="73.00" routeLength="69.44" timeLoss="22.35" maxSpeed="1.37"/>
    </personinfo>
    <personinfo id="199" depart="199.00" type="DEFAULT_PEDTYPE">
        <walk depart="199.00" departPos="0.00" arrival="276.00" arrivalPos="46.91" duration="77.00" routeLength="78.63" timeLoss="8.60" maxSpeed="1.15"/>
        <ride waitingTime="334.00" vehicle="taxi.76" depart="610.00" arrival="786.00" arrivalPos="122.29" duration="176.00" routeLength="1186.24" timeLoss="71.17"/>
        <walk depart="786.00" departPos="122.29" arrival="919.00" arrivalPos="2.38" duration="133.00" routeLength="124.39" timeLoss="24.79" maxSpeed="1.15"/>
    </personinfo>
    <personinfo id="213" depart="213.00" type="DEFAULT_PEDTYPE">
        <walk depart="213.00" departPos="0.00" arrival="357.00" arrivalPos="7.65" duration="144.00" routeLength="198.18" timeLoss="15.71" maxSpeed="1.54"/>
        <ride waitingTime="303.00" vehicle="taxi.80" depart="660.00" arrival="798.00" arrivalPos="95.15" duration="138.00" routeLength="1212.10" timeLoss="46.16"/>
        <walk depart="798.00" departPos="95.15" arrival="927.00" arrivalPos="9.70" duration="129.00" routeLength="175.57" timeLoss="15.35" maxSpeed="1.54"/>
    </personinfo>
    <personinfo id="57" depart="57.00" type="DEFAULT_PEDTYPE">
        <walk depart="57.00" departPos="0.00" arrival="402.00" arrivalPos="58.35" duration="345.00" routeLength="429.20" timeLoss="43.09" maxSpeed="1.42"/>
        <ride waitingTime="130.00" vehicle="taxi.31" depart="532.00" arrival="619.00" arrivalPos="23.76" duration="87.00" routeLength="794.90" timeLoss="28.55"/>
        <walk depart="619.00" departPos="23.76" arrival="929.00" arrivalPos="9.76" duration="310.00" routeLength="391.00" timeLoss="34.96" maxSpeed="1.42"/>
    </personinfo>
    <personinfo id="83" depart="83.00" type="DEFAULT_PEDTYPE">
        <walk depart="83.00" departPos="0.00" arrival="266.00" arrivalPos="7.65" duration="183.00" routeLength="212.93" timeLoss="24.46" maxSpeed="1.34"/>
        <ride waitingTime="493.00" vehicle="taxi.91" depart="759.00" arrival="847.00" arrivalPos="12.56" duration="88.00" routeLength="462.24" timeLoss="56.02"/>
        <walk depart="847.00" departPos="12.56" arrival="930.00" arrivalPos="5.59" duration="83.00" routeLength="89.83" timeLoss="16.12" maxSpeed="1.34"/>
    </personinfo>
    <personinfo id="800" depart="800.00" type="DEFAULT_PEDTYPE">
        <walk depart="800.00" departPos="0.00" arrival="931.00" arrivalPos="1.57" duration="131.00" routeLength="150.64" timeLoss="15.80" maxSpeed="1.31"/>
    </personinfo>
    <personinfo id="109" depart="109.00" type="DEFAULT_PEDTYPE">
        <walk depart="109.00" departPos="0.00" arrival="942.00" arrivalPos="5.84" duration="833.00" routeLength="965.34" timeLoss="108.70" maxSpeed="1.33"/>
    </personinfo>
    <personinfo id="76" depart="76.00" type="DEFAULT_PEDTYPE">
        <walk depart="76.00" departPos="0.00" arrival="261.00" arrivalPos="8.60" duration="185.00" routeLength="220.37" timeLoss="23.41" maxSpeed="1.36"/>
        <ride waitingTime="430.00" vehicle="taxi.94" depart="691.00" arrival="728.00" arrivalPos="82.05" duration="37.00" routeLength="339.63" timeLoss="13.47"/>
        <walk depart="728.00" departPos="82.05" arrival="942.00" arrivalPos="10.05" duration="214.00" routeLength="254.30" timeLoss="27.53" maxSpeed="1.36"/>
    </personinfo>
    <personinfo id="754" depart="754.00" type="DEFAULT_PEDTYPE">
        <walk depart="754.00" departPos="0.00" arrival="944.00" arrivalPos="9.91" duration="190.00" routeLength="220.71" timeLoss="24.68" maxSpeed="1.34"/>
    </personinfo>
    <personinfo id="719" depart="719.00" type="DEFAULT_PEDTYPE">
        <walk depart="719.00" departPos="0.00" arrival="947.00" arrivalPos="3.44" duration="228.00" routeLength="286.67" timeLoss="28.56" maxSpeed="1.44"/>
    </personinfo>
    <personinfo id="335" depart="335.00" type="DEFAULT_PEDTYPE">
        <walk depart="335.00" departPos="0.00" arrival="950.00" arrivalPos="18.31" duration="615.00" routeLength="565.18" timeLoss="82.56" maxSpeed="1.06"/>
    </personinfo>
    <personinfo id="32" depart="32.00" type="DEFAULT_PEDTYPE">
        <walk depart="32.00" departPos="0.00" arrival="37.00" arrivalPos="6.81" duration="5.00" routeLength="6.81" timeLoss="0.82" maxSpeed="1.63"/>
        <ride waitingTime="324.00" vehicle="taxi.19" depart="361.00" arrival="523.00" arrivalPos="55.19" duration="162.00" routeLength="1713.27" timeLoss="29.66"/>
        <walk depart="523.00" departPos="55.19" arrival="952.00" arrivalPos="0.34" duration="429.00" routeLength="610.14" timeLoss="54.10" maxSpeed="1.63"/>
    </personinfo>
    <personinfo id="146" depart="146.00" type="DEFAULT_PEDTYPE">
        <walk depart="146.00" departPos="0.00" arrival="159.00" arrivalPos="8.83" duration="13.00" routeLength="14.25" timeLoss="1.43" maxSpeed="1.23"/>
        <ride waitingTime="565.00" vehicle="taxi.13" depart="724.00" arrival="854.00" arrivalPos="117.72" duration="130.00" routeLength="1283.35" timeLoss="40.47"/>
        <walk depart="854.00" departPos="117.72" arrival="953.00" arrivalPos="3.44" duration="99.00" routeLength="105.34" timeLoss="13.48" maxSpeed="1.23"/>
    </personinfo>
    <personinfo id="862" depart="862.00" type="DEFAULT_PEDTYPE">
        <walk depart="862.00" departPos="0.00" arrival="961.00" arrivalPos="6.61" duration="99.00" routeLength="134.27" timeLoss="16.70" maxSpeed="1.63"/>
    </personinfo>
    <personinfo id="663" depart="663.00" type="DEFAULT_PEDTYPE">
        <walk depart="663.00" departPos="0.00" arrival="961.00" arrivalPos="13.54" duration="298.00" routeLength="402.80" timeLoss="40.78" maxSpeed="1.57"/>
    </personinfo>
    <personinfo id="930" depart="930.00" type="DEFAULT_PEDTYPE">
        <walk depart="930.00" departPos="0.00" arrival="971.00" arrivalPos="4.50" duration="41.00" routeLength="54.64" timeLoss="5.70" maxSpeed="1.55"/>
    </personinfo>
    <personinfo id="101" depart="101.00" type="DEFAULT_PEDTYPE">
        <walk depart="101.00" departPos="0.00" arrival="126.00" arrivalPos="36.59" duration="25.00" routeLength="27.20" timeLoss="4.53" maxSpeed="1.33"/>
        <ride waitingTime="328.00" vehicle="taxi.46" depart="454.00" arrival="815.00" arrivalPos="59.53" duration="361.00" routeLength="3632.36" timeLoss="115.22"/>
        <walk depart="815.00" departPos="59.53" arrival="972.00" arrivalPos="3.79" duration="157.00" routeLength="184.77" timeLoss="17.95" maxSpeed="1.33"/>
    </personinfo>
    <personinfo id="157" depart="157.00" type="DEFAULT_PEDTYPE">
        <walk depart="157.00" departPos="0.00" arrival="281.00" arrivalPos="57.21" duration="124.00" routeLength="160.44" timeLoss="16.92" maxSpeed="1.50"/>
        <ride waitingTime="411.00" vehicle="taxi.92" depart="692.00" arrival="733.00" arrivalPos="16.58" duration="41.00" routeLength="405.61" timeLoss="12.52"/>
        <walk depart="733.00" departPos="16.58" arrival="972.00" arrivalPos="1.45" duration="239.00" routeLength="319.13" timeLoss="26.00" maxSpeed="1.50"/>
    </personinfo>
    <personinfo id="578" depart="578.00" type="DEFAULT_PEDTYPE">
        <walk depart="578.00" departPos="0.00" arrival="975.00" arrivalPos="29.11" duration="397.00" routeLength="531.50" timeLoss="57.18" maxSpeed="1.56"/>
    </personinfo>
    <personinfo id="154" depart="154.00" type="DEFAULT_PEDTYPE">
        <walk depart="154.00" departPos="0.00" arrival="288.00" arrivalPos="19.96" duration="134.00" routeLength="159.97" timeLoss="25.81" maxSpeed="1.48"/>
        <ride waitingTime="418.00" vehicle="taxi.95" depart="706.00" arrival="766.00" arrivalPos="98.42" duration="60.00" routeLength="629.37" timeLoss="13.61"/>
        <walk depart="766.00" departPos="98.42" arrival="979.00" arrivalPos="9.23" duration="213.00" routeLength="236.54" timeLoss="53.02" maxSpeed="1.48"/>
    </personinfo>
    <personinfo id="91" depart="91.00" type="DEFAULT_PEDTYPE">
        <walk depart="91.00" departPos="0.00" arrival="329.00" arrivalPos="8.60" duration="238.00" routeLength="256.46" timeLoss="30.94" maxSpeed="1.24"/>