<?xml version="1.0" encoding="UTF-8"?>

<!-- generated on 2023-05-02 09:49:29 by Eclipse SUMO sumo Version 1.17.0
<configuration xmlns:xsi="http://www.w3.org/2001/XMLSchema-instance" xsi:noNamespaceSchemaLocation="http://sumo.dlr.de/xsd/sumoConfiguration.xsd">

    <input>
        <net-file value="osm.net.xml.gz"/>
        <route-files value="bikes.rou.xml"/>
    </input>

    <output>
        <tripinfo-output value="tripinfos.xml"/>
        <personinfo-output value="personinfos.xml"/>
        <edgedata-output value="edgedata.xml"/>
        <statistic-output value="stats.xml"/>
    </output>

    <processing>
        <lateral-resolution value="0.8"/>
        <tls.actuated.jam-threshold value="30"/>
    </processing>

    <report>
        <no-step-log value="true"/>
    </report>

</configuration>
-->

<tripinfos xmlns:xsi="http://www.w3.org/2001/XMLSchema-instance" xsi:noNamespaceSchemaLocation="http://sumo.dlr.de/xsd/tripinfo_file.xsd">
    <tripinfo id="pf_0.2_b0" depart="9.00" departLane="152839448#0_0" departPos="1.70" departPosLat="0.00" departSpeed="0.00" departDelay="1.00" arrival="249.00" arrivalLane="128643746#1_0" arrivalPos="15.76" arrivalPosLat="-1.27" arrivalSpeed="0.45" duration="240.00" routeLength="1138.02" waitingTime="9.00" waitingCount="2" stopTime="0.00" timeLoss="33.67" rerouteNo="1" devices="tripinfo_pf_0.2_b0 person_pf_0.2_b0" vType="DEFAULT_BIKETYPE" speedFactor="1.01" vaporized=""/>
    <tripinfo id="pf_0.1_b0" depart="7.00" departLane="152839448#0_0" departPos="1.70" departPosLat="0.00" departSpeed="0.00" departDelay="0.00" arrival="257.00" arrivalLane="128643746#1_0" arrivalPos="15.76" arrivalPosLat="-1.27" arrivalSpeed="1.84" duration="250.00" routeLength="1138.02" waitingTime="6.00" waitingCount="2" stopTime="0.00" timeLoss="31.84" rerouteNo="1" devices="tripinfo_pf_0.1_b0 person_pf_0.1_b0" vType="DEFAULT_BIKETYPE" speedFactor="0.95" vaporized=""/>
    <tripinfo id="pf_0.17_b0" depart="47.00" departLane="152839448#0_0" departPos="1.70" departPosLat="0.00" departSpeed="0.00" departDelay="13.00" arrival="311.00" arrivalLane="128643746#1_0" arrivalPos="15.76" arrivalPosLat="-1.27" arrivalSpeed="0.16" duration="264.00" routeLength="1138.02" waitingTime="44.00" waitingCount="2" stopTime="0.00" timeLoss="83.95" rerouteNo="1" devices="tripinfo_pf_0.17_b0 person_pf_0.17_b0" vType="DEFAULT_BIKETYPE" speedFactor="1.16" vaporized=""/>
    <tripinfo id="pf_0.7_b0" depart="22.00" departLane="152839448#0_0" departPos="1.70" departPosLat="0.00" departSpeed="0.00" departDelay="3.00" arrival="315.00" arrivalLane="128643746#1_0" arrivalPos="15.76" arrivalPosLat="-1.27" arrivalSpeed="0.10" duration="293.00" routeLength="1138.02" waitingTime="55.00" waitingCount="4" stopTime="0.00" timeLoss="101.61" rerouteNo="1" devices="tripinfo_pf_0.7_b0 person_pf_0.7_b0" vType="DEFAULT_BIKETYPE" speedFactor="1.09" vaporized=""/>
    <tripinfo id="pf_0.11_b0" depart="32.00" departLane="152839448#0_0" departPos="1.70" departPosLat="0.00" departSpeed="0.00" departDelay="4.00" arrival="317.00" arrivalLane="128643746#1_0" arrivalPos="15.76" arrivalPosLat="-1.27" arrivalSpeed="2.56" duration="285.00" routeLength="1138.02" waitingTime="49.00" waitingCount="3" stopTime="0.00" timeLoss="88.46" rerouteNo="1" devices="tripinfo_pf_0.11_b0 person_pf_0.11_b0" vType="DEFAULT_BIKETYPE" speedFactor="1.06" vaporized=""/>
    <tripinfo id="pf_0.5_b0" depart="17.00" departLane="152839448#0_0" departPos="1.70" departPosLat="0.00" departSpeed="0.00" departDelay="1.00" arrival="321.00" arrivalLane="128643746#1_0" arrivalPos="15.76" arrivalPosLat="-1.27" arrivalSpeed="1.02" duration="304.00" routeLength="1138.02" waitingTime="52.00" waitingCount="3" stopTime="0.00" timeLoss="102.00" rerouteNo="1" devices="tripinfo_pf_0.5_b0 person_pf_0.5_b0" vType="DEFAULT_BIKETYPE" speedFactor="1.03" vaporized=""/>
    <tripinfo id="pf_0.23_b0" depart="63.00" departLane="152839448#0_0" departPos="1.70" departPosLat="0.00" departSpeed="0.00" departDelay="7.00" arrival="325.00" arrivalLane="128643746#1_0" arrivalPos="15.76" arrivalPosLat="-1.27" arrivalSpeed="0.28" duration="262.00" routeLength="1138.02" waitingTime="9.00" waitingCount="3" stopTime="0.00" timeLoss="69.31" rerouteNo="1" devices="tripinfo_pf_0.23_b0 person_pf_0.23_b0" vType="DEFAULT_BIKETYPE" speedFactor="1.08" vaporized=""/>
    <tripinfo id="pf_0.18_b0" depart="50.00" departLane="152839448#0_0" departPos="1.70" departPosLat="0.00" departSpeed="0.00" departDelay="12.00" arrival="328.00" arrivalLane="128643746#1_0" arrivalPos="15.76" arrivalPosLat="1.13" arrivalSpeed="0.29" duration="278.00" routeLength="1138.02" waitingTime="41.00" waitingCount="2" stopTime="0.00" timeLoss="77.56" rerouteNo="1" devices="tripinfo_pf_0.18_b0 person_pf_0.18_b0" vType="DEFAULT_BIKETYPE" speedFactor="1.04" vaporized=""/>
    <tripinfo id="pf_0.9_b0" depart="27.00" departLane="152839448#0_0" departPos="1.70" departPosLat="0.00" departSpeed="0.00" departDelay="3.00" arrival="330.00" arrivalLane="128643746#1_0" arrivalPos="15.76" arrivalPosLat="-1.27" arrivalSpeed="0.10" duration="303.00" routeLength="1138.02" waitingTime="49.00" waitingCount="5" stopTime="0.00" timeLoss="83.51" rerouteNo="1" devices="tripinfo_pf_0.9_b0 person_pf_0.9_b0" vType="DEFAULT_BIKETYPE" speedFactor="0.95" vaporized=""/>
    <tripinfo id="pf_0.22_b0" depart="60.00" departLane="152839448#0_0" departPos="1.70" departPosLat="0.00" departSpeed="0.00" departDelay="6.00" arrival="331.00" arrivalLane="128643746#1_0" arrivalPos="15.76" arrivalPosLat="-0.87" arrivalSpeed="0.14" duration="271.00" routeLength="1138.02" waitingTime="13.00" waitingCount="4" stopTime="0.00" timeLoss="66.04" rerouteNo="1" devices="tripinfo_pf_0.22_b0 person_pf_0.22_b0" vType="DEFAULT_BIKETYPE" speedFactor="1.01" vaporized=""/>
    <tripinfo id="pf_0.10_b0" depart="29.00" departLane="152839448#0_0" departPos="1.70" departPosLat="0.00" departSpeed="0.00" departDelay="1.00" arrival="332.00" arrivalLane="128643746#1_0" arrivalPos="15.76" arrivalPosLat="0.13" arrivalSpeed="2.39" duration="303.00" routeLength="1138.02" waitingTime="43.00" waitingCount="3" stopTime="0.00" timeLoss="96.21" rerouteNo="1" devices="tripinfo_pf_0.10_b0 person_pf_0.10_b0" vType="DEFAULT_BIKETYPE" speedFactor="1.00" vaporized=""/>
    <tripinfo id="pf_0.12_b0" depart="34.00" departLane="152839448#0_0" departPos="1.70" departPosLat="0.00" departSpeed="0.00" departDelay="2.00" arrival="334.00" arrivalLane="128643746#1_0" arrivalPos="15.76" arrivalPosLat="1.13" arrivalSpeed="1.85" duration="300.00" routeLength="1138.02" waitingTime="33.00" waitingCount="2" stopTime="0.00" timeLoss="84.62" rerouteNo="1" devices="tripinfo_pf_0.12_b0 person_pf_0.12_b0" vType="DEFAULT_BIKETYPE" speedFactor="0.96" vaporized=""/>
    <tripinfo id="pf_0.3_b0" depart="11.00" departLane="152839448#0_0" departPos="1.70" departPosLat="0.00" departSpeed="0.00" departDelay="1.00" arrival="335.00" arrivalLane="128643746#1_0" arrivalPos="15.76" arrivalPosLat="-1.27" arrivalSpeed="0.10" duration="324.00" routeLength="1138.02" waitingTime="58.00" waitingCount="4" stopTime="0.00" timeLoss="95.64" rerouteNo="1" devices="tripinfo_pf_0.3_b0 person_pf_0.3_b0" vType="DEFAULT_BIKETYPE" speedFactor="0.91" vaporized=""/>
    <tripinfo id="pf_0.14_b0" depart="39.00" departLane="152839448#0_0" departPos="1.70" departPosLat="0.00" departSpeed="0.00" departDelay="6.00" arrival="340.00" arrivalLane="128643746#1_0" arrivalPos="15.76" arrivalPosLat="-1.27" arrivalSpeed="0.21" duration="301.00" routeLength="1138.02" waitingTime="32.00" waitingCount="2" stopTime="0.00" timeLoss="86.42" rerouteNo="1" devices="tripinfo_pf_0.14_b0 person_pf_0.14_b0" vType="DEFAULT_BIKETYPE" speedFactor="0.97" vaporized=""/>
    <tripinfo id="pf_0.43_b0" depart="112.00" departLane="152839448#0_0" departPos="1.70" departPosLat="0.00" departSpeed="0.00" departDelay="24.00" arrival="340.00" arrivalLane="128643746#1_0" arrivalPos="15.76" arrivalPosLat="1.27" arrivalSpeed="0.25" duration="228.00" routeLength="1138.02" waitingTime="0.00" waitingCount="0" stopTime="0.00" timeLoss="59.09" rerouteNo="1" devices="tripinfo_pf_0.43_b0 person_pf_0.43_b0" vType="DEFAULT_BIKETYPE" speedFactor="1.23" vaporized=""/>
    <tripinfo id="pf_0.29_b0" depart="77.00" departLane="152839448#0_0" departPos="1.70" departPosLat="0.00" departSpeed="0.00" departDelay="7.00" arrival="341.00" arrivalLane="128643746#1_0" arrivalPos="15.76" arrivalPosLat="1.27" arrivalSpeed="2.75" duration="264.00" routeLength="1138.02" waitingTime="3.00" waitingCount="2" stopTime="0.00" timeLoss="77.20" rerouteNo="1" devices="tripinfo_pf_0.29_b0 person_pf_0.29_b0" vType="DEFAULT_BIKETYPE" speedFactor="1.11" vaporized=""/>
    <tripinfo id="pf_0.0_b0" depart="1.00" departLane="152839448#0_0" departPos="1.70" departPosLat="0.00" departSpeed="0.00" departDelay="0.00" arrival="343.00" arrivalLane="128643746#1_0" arrivalPos="15.76" arrivalPosLat="-1.27" arrivalSpeed="0.10" duration="342.00" routeLength="1138.02" waitingTime="51.00" waitingCount="7" stopTime="0.00" timeLoss="94.31" rerouteNo="1" devices="tripinfo_pf_0.0_b0 person_pf_0.0_b0" vType="DEFAULT_BIKETYPE" speedFactor="0.84" vaporized=""/>
    <tripinfo id="pf_0.21_b0" depart="57.00" departLane="152839448#0_0" departPos="1.70" departPosLat="0.00" departSpeed="0.00" departDelay="5.00" arrival="343.00" arrivalLane="128643746#1_0" arrivalPos="15.76" arrivalPosLat="0.13" arrivalSpeed="0.19" duration="286.00" routeLength="1138.02" waitingTime="15.00" waitingCount="5" stopTime="0.00" timeLoss="64.19" rerouteNo="1" devices="tripinfo_pf_0.21_b0 person_pf_0.21_b0" vType="DEFAULT_BIKETYPE" speedFactor="0.94" vaporized=""/>
    <tripinfo id="pf_0.33_b0" depart="88.00" departLane="152839448#0_0" departPos="1.70" departPosLat="0.00" departSpeed="0.00" departDelay="12.00" arrival="345.00" arrivalLane="128643746#1_0" arrivalPos="15.76" arrivalPosLat="0.00" arrivalSpeed="0.80" duration="257.00" routeLength="1138.02" waitingTime="3.00" waitingCount="2" stopTime="0.00" timeLoss="61.39" rerouteNo="1" devices="tripinfo_pf_0.33_b0 person_pf_0.33_b0" vType="DEFAULT_BIKETYPE" speedFactor="1.06" vaporized=""/>
    <tripinfo id="pf_0.37_b0" depart="97.00" departLane="152839448#0_0" departPos="1.70" departPosLat="0.00" departSpeed="0.00" departDelay="14.00" arrival="345.00" arrivalLane="128643746#1_0" arrivalPos="15.76" arrivalPosLat="1.27" arrivalSpeed="0.07" duration="248.00" routeLength="1138.02" waitingTime="10.00" waitingCount="2" stopTime="0.00" timeLoss="71.03" rerouteNo="1" devices="tripinfo_pf_0.37_b0 person_pf_0.37_b0" vType="DEFAULT_BIKETYPE" speedFactor="1.17" vaporized=""/>
    <tripinfo id="pf_0.15_b0" depart="42.00" departLane="152839448#0_0" departPos="1.70" departPosLat="0.00" departSpeed="0.00" departDelay="9.00" arrival="346.00" arrivalLane="128643746#1_0" arrivalPos="15.76" arrivalPosLat="-1.27" arrivalSpeed="0.30" duration="304.00" routeLength="1138.02" waitingTime="33.00" waitingCount="2" stopTime="0.00" timeLoss="73.82" rerouteNo="1" devices="tripinfo_pf_0.15_b0 person_pf_0.15_b0" vType="DEFAULT_BIKETYPE" speedFactor="0.90" vaporized=""/>
    <tripinfo id="pf_0.6_b0" depart="19.00" departLane="152839448#0_0" departPos="1.70" departPosLat="0.00" departSpeed="0.00" departDelay="0.00" arrival="347.00" arrivalLane="128643746#1_0" arrivalPos="15.76" arrivalPosLat="0.13" arrivalSpeed="0.64" duration="328.00" routeLength="1138.02" waitingTime="44.00" waitingCount="6" stopTime="0.00" timeLoss="127.86" rerouteNo="1" devices="tripinfo_pf_0.6_b0 person_pf_0.6_b0" vType="DEFAULT_BIKETYPE" speedFactor="1.04" vaporized=""/>
    <tripinfo id="pf_0.13_b0" depart="37.00" departLane="152839448#0_0" departPos="1.70" departPosLat="0.00" departSpeed="0.00" departDelay="5.00" arrival="348.00" arrivalLane="128643746#1_0" arrivalPos="15.76" arrivalPosLat="1.27" arrivalSpeed="0.25" duration="311.00" routeLength="1138.02" waitingTime="37.00" waitingCount="3" stopTime="0.00" timeLoss="107.92" rerouteNo="1" devices="tripinfo_pf_0.13_b0 person_pf_0.13_b0" vType="DEFAULT_BIKETYPE" speedFactor="1.02" vaporized=""/>
    <tripinfo id="pf_0.8_b0" depart="24.00" departLane="152839448#0_0" departPos="1.70" departPosLat="0.00" departSpeed="0.00" departDelay="4.00" arrival="349.00" arrivalLane="128643746#1_0" arrivalPos="15.76" arrivalPosLat="0.13" arrivalSpeed="0.96" duration="325.00" routeLength="1138.02" waitingTime="46.00" waitingCount="3" stopTime="0.00" timeLoss="117.89" rerouteNo="1" devices="tripinfo_pf_0.8_b0 person_pf_0.8_b0" vType="DEFAULT_BIKETYPE" speedFactor="1.00" vaporized=""/>
    <tripinfo id="pf_0.24_b0" depart="65.00" departLane="152839448#0_0" departPos="1.70" departPosLat="0.00" departSpeed="0.00" departDelay="8.00" arrival="349.00" arrivalLane="128643746#1_0" arrivalPos="15.76" arrivalPosLat="-1.27" arrivalSpeed="0.11" duration="284.00" routeLength="1138.02" waitingTime="5.00" waitingCount="3" stopTime="0.00" timeLoss="83.21" rerouteNo="1" devices="tripinfo_pf_0.24_b0 person_pf_0.24_b0" vType="DEFAULT_BIKETYPE" speedFactor="1.04" vaporized=""/>
    <tripinfo id="pf_0.35_b0" depart="93.00" departLane="152839448#0_0" departPos="1.70" departPosLat="0.00" departSpeed="0.00" departDelay="10.00" arrival="350.00" arrivalLane="128643746#1_0" arrivalPos="15.76" arrivalPosLat="1.27" arrivalSpeed="0.09" duration="257.00" routeLength="1138.02" waitingTime="3.00" waitingCount="3" stopTime="0.00" timeLoss="81.99" rerouteNo="1" devices="tripinfo_pf_0.35_b0 person_pf_0.35_b0" vType="DEFAULT_BIKETYPE" speedFactor="1.19" vaporized=""/>
    <tripinfo id="pf_0.26_b0" depart="70.00" departLane="152839448#0_0" departPos="1.70" departPosLat="0.00" departSpeed="0.00" departDelay="3.00" arrival="352.00" arrivalLane="128643746#1_0" arrivalPos="15.76" arrivalPosLat="0.13" arrivalSpeed="0.18" duration="282.00" routeLength="1138.02" waitingTime="4.00" waitingCount="3" stopTime="0.00" timeLoss="92.30" rerouteNo="1" devices="tripinfo_pf_0.26_b0 person_pf_0.26_b0" vType="DEFAULT_BIKETYPE" speedFactor="1.10" vaporized=""/>
    <tripinfo id="pf_0.4_b0" depart="15.00" departLane="152839448#0_0" departPos="1.70" departPosLat="0.00" departSpeed="0.00" departDelay="0.00" arrival="353.00" arrivalLane="128643746#1_0" arrivalPos="15.76" arrivalPosLat="-1.27" arrivalSpeed="0.12" duration="338.00" routeLength="1138.02" waitingTime="42.00" waitingCount="5" stopTime="0.00" timeLoss="88.04" rerouteNo="1" devices="tripinfo_pf_0.4_b0 person_pf_0.4_b0" vType="DEFAULT_BIKETYPE" speedFactor="0.83" vaporized=""/>
    <tripinfo id="pf_0.31_b0" depart="83.00" departLane="152839448#0_0" departPos="1.70" departPosLat="0.00" departSpeed="0.00" departDelay="11.00" arrival="356.00" arrivalLane="128643746#1_0" arrivalPos="15.76" arrivalPosLat="-1.27" arrivalSpeed="0.06" duration="273.00" routeLength="1138.02" waitingTime="3.00" waitingCount="2" stopTime="0.00" timeLoss="47.66" rerouteNo="1" devices="tripinfo_pf_0.31_b0 person_pf_0.31_b0" vType="DEFAULT_BIKETYPE" speedFactor="0.92" vaporized=""/>
    <tripinfo id="pf_0.19_b0" depart="52.00" departLane="152839448#0_0" departPos="1.70" departPosLat="0.00" departSpeed="0.00" departDelay="9.00" arrival="358.00" arrivalLane="128643746#1_0" arrivalPos="15.76" arrivalPosLat="-1.27" arrivalSpeed="0.81" duration="306.00" routeLength="1138.02" waitingTime="24.00" waitingCount="4" stopTime="0.00" timeLoss="76.45" rerouteNo="1" devices="tripinfo_pf_0.19_b0 person_pf_0.19_b0" vType="DEFAULT_BIKETYPE" speedFactor="0.90" vaporized=""/>
    <tripinfo id="pf_0.40_b0" depart="105.00" departLane="152839448#0_0" departPos="1.70" departPosLat="0.00" departSpeed="0.00" departDelay="17.00" arrival="358.00" arrivalLane="128643746#1_0" arrivalPos="15.76" arrivalPosLat="1.27" arrivalSpeed="0.50" duration="253.00" routeLength="1138.02" waitingTime="17.00" waitingCount="3" stopTime="0.00" timeLoss="61.81" rerouteNo="1" devices="tripinfo_pf_0.40_b0 person_pf_0.40_b0" vType="DEFAULT_BIKETYPE" speedFactor="1.09" vaporized=""/>
    <tripinfo id="pf_0.27_b0" depart="72.00" departLane="152839448#0_0" departPos="1.70" departPosLat="0.00" departSpeed="0.00" departDelay="5.00" arrival="361.00" arrivalLane="128643746#1_0" arrivalPos="15.76" arrivalPosLat="1.27" arrivalSpeed="1.69" duration="289.00" routeLength="1138.02" waitingTime="6.00" waitingCount="3" stopTime="0.00" timeLoss="80.44" rerouteNo="1" devices="tripinfo_pf_0.27_b0 person_pf_0.27_b0" vType="DEFAULT_BIKETYPE" speedFactor="1.00" vaporized=""/>
    <tripinfo id="pf_0.32_b0" depart="85.00" departLane="152839448#0_0" departPos="1.70" departPosLat="0.00" departSpeed="0.00" departDelay="11.00" arrival="361.00" arrivalLane="128643746#1_0" arrivalPos="15.76" arrivalPosLat="0.13" arrivalSpeed="0.06" duration="276.00" routeLength="1138.02" waitingTime="5.00" waitingCount="3" stopTime="0.00" timeLoss="40.68" rerouteNo="1" devices="tripinfo_pf_0.32_b0 person_pf_0.32_b0" vType="DEFAULT_BIKETYPE" speedFactor="0.88" vaporized=""/>
    <tripinfo id="pf_0.16_b0" depart="44.00" departLane="152839448#0_0" departPos="1.70" departPosLat="0.00" departSpeed="0.00" departDelay="10.00" arrival="362.00" arrivalLane="128643746#1_0" arrivalPos="15.76" arrivalPosLat="-1.27" arrivalSpeed="0.11" duration="318.00" routeLength="1138.02" waitingTime="33.00" waitingCount="3" stopTime="0.00" timeLoss="90.58" rerouteNo="1" devices="tripinfo_pf_0.16_b0 person_pf_0.16_b0" vType="DEFAULT_BIKETYPE" speedFactor="0.91" vaporized=""/>
    <tripinfo id="pf_0.38_b0" depart="100.00" departLane="152839448#0_0" departPos="1.70" departPosLat="0.00" departSpeed="0.00" departDelay="15.00" arrival="363.00" arrivalLane="128643746#1_0" arrivalPos="15.76" arrivalPosLat="1.27" arrivalSpeed="1.13" duration="263.00" routeLength="1138.02" waitingTime="8.00" waitingCount="2" stopTime="0.00" timeLoss="89.36" rerouteNo="1" devices="tripinfo_pf_0.38_b0 person_pf_0.38_b0" vType="DEFAULT_BIKETYPE" speedFactor="1.20" vaporized=""/>
    <tripinfo id="pf_0.20_b0" depart="55.00" departLane="152839448#0_0" departPos="1.70" departPosLat="0.00" departSpeed="0.00" departDelay="7.00" arrival="364.00" arrivalLane="128643746#1_0" arrivalPos="15.76" arrivalPosLat="-1.27" arrivalSpeed="0.93" duration="309.00" routeLength="1138.02" waitingTime="17.00" waitingCount="4" stopTime="0.00" timeLoss="72.69" rerouteNo="1" devices="tripinfo_pf_0.20_b0 person_pf_0.20_b0" vType="DEFAULT_BIKETYPE" speedFactor="0.88" vaporized=""/>
    <tripinfo id="pf_0.34_b0" depart="90.00" departLane="152839448#0_0" departPos="1.70" departPosLat="0.00" departSpeed="0.00" departDelay="13.00" arrival="364.00" arrivalLane="128643746#1_0" arrivalPos="15.76" arrivalPosLat="0.13" arrivalSpeed="0.33" duration="274.00" routeLength="1138.02" waitingTime="4.00" waitingCount="2" stopTime="0.00" timeLoss="71.34" rerouteNo="1" devices="tripinfo_pf_0.34_b0 person_pf_0.34_b0" vType="DEFAULT_BIKETYPE" speedFactor="1.03" vaporized=""/>
    <tripinfo id="pf_0.25_b0" depart="68.00" departLane="152839448#0_0" departPos="1.70" departPosLat="0.00" departSpeed="0.00" departDelay="9.00" arrival="367.00" arrivalLane="128643746#1_0" arrivalPos="15.76" arrivalPosLat="1.13" arrivalSpeed="0.17" duration="299.00" routeLength="1138.02" waitingTime="7.00" waitingCount="4" stopTime="0.00" timeLoss="130.54" rerouteNo="1" devices="tripinfo_pf_0.25_b0 person_pf_0.25_b0" vType="DEFAULT_BIKETYPE" speedFactor="1.24" vaporized=""/>
    <tripinfo id="pf_0.30_b0" depart="80.00" departLane="152839448#0_0" departPos="1.70" departPosLat="0.00" departSpeed="0.00" departDelay="10.00" arrival="367.00" arrivalLane="128643746#1_0" arrivalPos="15.76" arrivalPosLat="-1.27" arrivalSpeed="0.25" duration="287.00" routeLength="1138.02" waitingTime="4.00" waitingCount="2" stopTime="0.00" timeLoss="74.55" rerouteNo="1" devices="tripinfo_pf_0.30_b0 person_pf_0.30_b0" vType="DEFAULT_BIKETYPE" speedFactor="0.98" vaporized=""/>
    <tripinfo id="pf_0.28_b0" depart="75.00" departLane="152839448#0_0" departPos="1.70" departPosLat="0.00" departSpeed="0.00" departDelay="7.00" arrival="368.00" arrivalLane="128643746#1_0" arrivalPos="15.76" arrivalPosLat="-0.47" arrivalSpeed="0.29" duration="293.00" routeLength="1138.02" waitingTime="4.00" waitingCount="3" stopTime="0.00" timeLoss="68.61" rerouteNo="1" devices="tripinfo_pf_0.28_b0 person_pf_0.28_b0" vType="DEFAULT_BIKETYPE" speedFactor="0.93" vaporized=""/>
    <tripinfo id="pf_0.47_b0" depart="122.00" departLane="152839448#0_0" departPos="1.70" departPosLat="0.00" departSpeed="0.00" departDelay="8.00" arrival="377.00" arrivalLane="128643746#1_0" arrivalPos="15.76" arrivalPosLat="-1.27" arrivalSpeed="0.24" duration="255.00" routeLength="1138.02" waitingTime="12.00" waitingCount="3" stopTime="0.00" timeLoss="54.88" rerouteNo="1" devices="tripinfo_pf_0.47_b0 person_pf_0.47_b0" vType="DEFAULT_BIKETYPE" speedFactor="1.04" vaporized=""/>
    <tripinfo id="pf_0.49_b0" depart="127.00" departLane="152839448#0_0" departPos="1.70" departPosLat="0.00" departSpeed="0.00" departDelay="13.00" arrival="378.00" arrivalLane="128643746#1_0" arrivalPos="15.76" arrivalPosLat="-0.13" arrivalSpeed="0.12" duration="251.00" routeLength="1138.02" waitingTime="5.00" waitingCount="2" stopTime="0.00" timeLoss="70.94" rerouteNo="1" devices="tripinfo_pf_0.49_b0 person_pf_0.49_b0" vType="DEFAULT_BIKETYPE" speedFactor="1.16" vaporized=""/>
    <tripinfo id="pf_0.51_b0" depart="132.00" departLane="152839448#0_0" departPos="1.70" departPosLat="0.00" departSpeed="0.00" departDelay="14.00" arrival="378.00" arrivalLane="128643746#1_0" arrivalPos="15.76" arrivalPosLat="1.27" arrivalSpeed="0.40" duration="246.00" routeLength="1138.02" waitingTime="4.00" waitingCount="1" stopTime="0.00" timeLoss="36.01" rerouteNo="1" devices="tripinfo_pf_0.51_b0 person_pf_0.51_b0" vType="DEFAULT_BIKETYPE" speedFactor="0.99" vaporized=""/>
    <tripinfo id="pf_0.41_b0" depart="107.00" departLane="152839448#0_0" departPos="1.70" departPosLat="0.00" departSpeed="0.00" departDelay="19.00" arrival="380.00" arrivalLane="128643746#1_0" arrivalPos="15.76" arrivalPosLat="-1.27" arrivalSpeed="0.16" duration="273.00" routeLength="1138.02" waitingTime="13.00" waitingCount="3" stopTime="0.00" timeLoss="55.84" rerouteNo="1" devices="tripinfo_pf_0.41_b0 person_pf_0.41_b0" vType="DEFAULT_BIKETYPE" speedFactor="0.96" vaporized=""/>
    <tripinfo id="pf_0.36_b0" depart="95.00" departLane="152839448#0_0" departPos="1.70" departPosLat="0.00" departSpeed="0.00" departDelay="12.00" arrival="383.00" arrivalLane="128643746#1_0" arrivalPos="15.76" arrivalPosLat="-0.27" arrivalSpeed="0.16" duration="288.00" routeLength="1138.02" waitingTime="32.00" waitingCount="3" stopTime="0.00" timeLoss="62.54" rerouteNo="1" devices="tripinfo_pf_0.36_b0 person_pf_0.36_b0" vType="DEFAULT_BIKETYPE" speedFactor="0.92" vaporized=""/>
    <tripinfo id="pf_0.46_b0" depart="119.00" departLane="152839448#0_0" departPos="1.70" departPosLat="0.00" departSpeed="0.00" departDelay="7.00" arrival="383.00" arrivalLane="128643746#1_0" arrivalPos="15.76" arrivalPosLat="1.27" arrivalSpeed="0.06" duration="264.00" routeLength="1138.02" waitingTime="10.00" waitingCount="3" stopTime="0.00" timeLoss="46.93" rerouteNo="1" devices="tripinfo_pf_0.46_b0 person_pf_0.46_b0" vType="DEFAULT_BIKETYPE" speedFactor="0.96" vaporized=""/>
    <tripinfo id="pf_0.42_b0" depart="109.00" departLane="152839448#0_0" departPos="1.70" departPosLat="0.00" departSpeed="0.00" departDelay="21.00" arrival="384.00" arrivalLane="128643746#1_0" arrivalPos="15.76" arrivalPosLat="-1.27" arrivalSpeed="0.10" duration="275.00" routeLength="1138.02" waitingTime="15.00" waitingCount="3" stopTime="0.00" timeLoss="42.18" rerouteNo="1" devices="tripinfo_pf_0.42_b0 person_pf_0.42_b0" vType="DEFAULT_BIKETYPE" speedFactor="0.89" vaporized=""/>
    <tripinfo id="pf_0.39_b0" depart="102.00" departLane="152839448#0_0" departPos="1.70" departPosLat="0.00" departSpeed="0.00" departDelay="15.00" arrival="388.00" arrivalLane="128643746#1_0" arrivalPos="15.76" arrivalPosLat="-1.27" arrivalSpeed="0.30" duration="286.00" routeLength="1138.02" waitingTime="15.00" waitingCount="3" stopTime="0.00" timeLoss="47.65" rerouteNo="1" devices="tripinfo_pf_0.39_b0 person_pf_0.39_b0" vType="DEFAULT_BIKETYPE" speedFactor="0.87" vaporized=""/>
    <tripinfo id="pf_0.58_b0" depart="150.00" departLane="152839448#0_0" departPos="1.70" departPosLat="0.00" departSpeed="0.00" departDelay="15.00" arrival="390.00" arrivalLane="128643746#1_0" arrivalPos="15.76" arrivalPosLat="1.13" arrivalSpeed="0.11" duration="240.00" routeLength="1138.02" waitingTime="6.00" waitingCount="1" stopTime="0.00" timeLoss="44.31" rerouteNo="1" devices="tripinfo_pf_0.58_b0 person_pf_0.58_b0" vType="DEFAULT_BIKETYPE" speedFactor="1.06" vaporized=""/>
    <tripinfo id="pf_0.45_b0" depart="117.00" departLane="152839448#0_0" departPos="1.70" departPosLat="0.00" departSpeed="0.00" departDelay="14.00" arrival="391.00" arrivalLane="128643746#1_0" arrivalPos="15.76" arrivalPosLat="-1.27" arrivalSpeed="0.11" duration="274.00" routeLength="1138.02" waitingTime="11.00" waitingCount="2" stopTime="0.00" timeLoss="45.57" rerouteNo="1" devices="tripinfo_pf_0.45_b0 person_pf_0.45_b0" vType="DEFAULT_BIKETYPE" speedFactor="0.91" vaporized=""/>
    <tripinfo id="pf_0.55_b0" depart="143.00" departLane="152839448#0_0" departPos="1.70" departPosLat="0.00" departSpeed="0.00" departDelay="16.00" arrival="392.00" arrivalLane="128643746#1_0" arrivalPos="15.76" arrivalPosLat="-0.93" arrivalSpeed="0.34" duration="249.00" routeLength="1138.02" waitingTime="6.00" waitingCount="1" stopTime="0.00" timeLoss="42.99" rerouteNo="1" devices="tripinfo_pf_0.55_b0 person_pf_0.55_b0" vType="DEFAULT_BIKETYPE" speedFactor="1.01" vaporized=""/>
    <tripinfo id="pf_0.61_b0" depart="157.00" departLane="152839448#0_0" departPos="1.70" departPosLat="0.00" departSpeed="0.00" departDelay="5.00" arrival="392.00" arrivalLane="128643746#1_0" arrivalPos="15.76" arrivalPosLat="0.93" arrivalSpeed="0.26" duration="235.00" routeLength="1138.02" waitingTime="4.00" waitingCount="1" stopTime="0.00" timeLoss="58.94" rerouteNo="1" devices="tripinfo_pf_0.61_b0 person_pf_0.61_b0" vType="DEFAULT_BIKETYPE" speedFactor="1.18" vaporized=""/>
    <tripinfo id="pf_0.65_b0" depart="167.00" departLane="152839448#0_0" departPos="1.70" departPosLat="0.00" departSpeed="0.00" departDelay="8.00" arrival="395.00" arrivalLane="128643746#1_0" arrivalPos="15.76" arrivalPosLat="-1.27" arrivalSpeed="0.16" duration="228.00" routeLength="1138.02" waitingTime="4.00" waitingCount="1" stopTime="0.00" timeLoss="38.14" rerouteNo="1" devices="tripinfo_pf_0.65_b0 person_pf_0.65_b0" vType="DEFAULT_BIKETYPE" speedFactor="1.09" vaporized=""/>
    <tripinfo id="pf_0.60_b0" depart="155.00" departLane="152839448#0_0" departPos="1.70" departPosLat="0.00" departSpeed="0.00" departDelay="13.00" arrival="397.00" arrivalLane="128643746#1_0" arrivalPos="15.76" arrivalPosLat="-1.27" arrivalSpeed="0.34" duration="242.00" routeLength="1138.02" waitingTime="6.00" waitingCount="1" stopTime="0.00" timeLoss="41.02" rerouteNo="1" devices="tripinfo_pf_0.60_b0 person_pf_0.60_b0" vType="DEFAULT_BIKETYPE" speedFactor="1.03" vaporized=""/>
    <tripinfo id="pf_0.48_b0" depart="124.00" departLane="152839448#0_0" departPos="1.70" departPosLat="0.00" departSpeed="0.00" departDelay="10.00" arrival="401.00" arrivalLane="128643746#1_0" arrivalPos="15.76" arrivalPosLat="-1.27" arrivalSpeed="0.13" duration="277.00" routeLength="1138.02" waitingTime="15.00" waitingCount="2" stopTime="0.00" timeLoss="50.37" rerouteNo="1" devices="tripinfo_pf_0.48_b0 person_pf_0.48_b0" vType="DEFAULT_BIKETYPE" speedFactor="0.92" vaporized=""/>
    <tripinfo id="pf_0.59_b0" depart="153.00" departLane="152839448#0_0" departPos="1.70" departPosLat="0.00" departSpeed="0.00" departDelay="11.00" arrival="402.00" arrivalLane="128643746#1_0" arrivalPos="15.76" arrivalPosLat="0.13" arrivalSpeed="0.84" duration="249.00" routeLength="1138.02" waitingTime="5.00" waitingCount="1" stopTime="0.00" timeLoss="45.98" rerouteNo="1" devices="tripinfo_pf_0.59_b0 person_pf_0.59_b0" vType="DEFAULT_BIKETYPE" speedFactor="1.02" vaporized=""/>
    <tripinfo id="pf_0.50_b0" depart="129.00" departLane="152839448#0_0" departPos="1.70" departPosLat="0.00" departSpeed="0.00" departDelay="13.00" arrival="404.00" arrivalLane="128643746#1_0" arrivalPos="15.76" arrivalPosLat="-1.27" arrivalSpeed="0.25" duration="275.00" routeLength="1138.02" waitingTime="10.00" waitingCount="2" stopTime="0.00" timeLoss="49.32" rerouteNo="1" devices="tripinfo_pf_0.50_b0 person_pf_0.50_b0" vType="DEFAULT_BIKETYPE" speedFactor="0.92" vaporized=""/>
    <tripinfo id="pf_0.53_b0" depart="137.00" departLane="152839448#0_0" departPos="1.70" departPosLat="0.00" departSpeed="0.00" departDelay="14.00" arrival="408.00" arrivalLane="128643746#1_0" arrivalPos="15.76" arrivalPosLat="-1.27" arrivalSpeed="0.26" duration="271.00" routeLength="1138.02" waitingTime="9.00" waitingCount="3" stopTime="0.00" timeLoss="54.70" rerouteNo="1" devices="tripinfo_pf_0.53_b0 person_pf_0.53_b0" vType="DEFAULT_BIKETYPE" speedFactor="0.96" vaporized=""/>
    <tripinfo id="pf_0.63_b0" depart="162.00" departLane="152839448#0_0" departPos="1.70" departPosLat="0.00" departSpeed="0.00" departDelay="7.00" arrival="408.00" arrivalLane="128643746#1_0" arrivalPos="15.76" arrivalPosLat="1.27" arrivalSpeed="0.07" duration="246.00" routeLength="1138.02" waitingTime="8.00" waitingCount="3" stopTime="0.00" timeLoss="49.29" rerouteNo="1" devices="tripinfo_pf_0.63_b0 person_pf_0.63_b0" vType="DEFAULT_BIKETYPE" speedFactor="1.06" vaporized=""/>
    <tripinfo id="pf_0.54_b0" depart="140.00" departLane="152839448#0_0" departPos="1.70" departPosLat="0.00" departSpeed="0.00" departDelay="16.00" arrival="411.00" arrivalLane="128643746#1_0" arrivalPos="15.76" arrivalPosLat="-1.27" arrivalSpeed="1.56" duration="271.00" routeLength="1138.02" waitingTime="7.00" waitingCount="2" stopTime="0.00" timeLoss="43.36" rerouteNo="1" devices="tripinfo_pf_0.54_b0 person_pf_0.54_b0" vType="DEFAULT_BIKETYPE" speedFactor="0.91" vaporized=""/>